% Model:              Untitled.mph
% Version:            COMSOL 5.5.0.359
% Date:               Oct 7 2022, 18:58
% Dimension:          3
% Nodes:              891
% Expressions:        1
% Description:        Electric potential
% Length unit:        nm
% x                       y                        z                        V (V)
0                         0                        0                        4.1403253907982637E-13-1.5852144439994928E-13i
0.15                      0.15                     0                        3.5990833596413934E-13-1.1203293209072706E-13i
-0.15                     0.15                     0                        5.209721484033754E-13-2.2463394766761955E-13i
0.15                      -0.15                    0                        3.560368820506815E-13-9.532457113282275E-14i
-0.15                     -0.15                    0                        2.74955270676256E-13-3.139343565125607E-14i
0.15                      0                        0.15                     2.763603717854636E-11-7.964820298872607E-11i
-0.15                     0                        0.15                     2.768014586572595E-11-7.965120516771846E-11i
0.15                      0                        -0.15                    -2.68057505376853E-11+7.92728711586871E-11i
-0.15                     0                        -0.15                    -2.6766053310573037E-11+7.927100296570225E-11i
0                         0.15                     0.15                     2.759942245332682E-11-7.959800893433562E-11i
0                         -0.15                    0.15                     2.7694462363123708E-11-7.968679311092567E-11i
0                         0.15                     -0.15                    -2.6835552559483536E-11+7.932053350574873E-11i
0                         -0.15                    -0.15                    -2.6726940302977177E-11+7.920488798440794E-11i
0.3                       0                        0                        3.6241891955845926E-13-1.2070112267539895E-13i
-0.3                      0                        0                        4.1423246610765025E-13-1.2936045198337718E-13i
0                         0.3                      0                        6.020634727141954E-13-3.0398532715539673E-13i
0                         -0.3                     0                        2.040961622222518E-13+3.1381570015002414E-14i
0                         0                        0.3                      5.8170568272445366E-11-1.6197183253353357E-10i
0                         0                        -0.3                     -5.729220314759277E-11+1.6154582543594754E-10i
0.3                       0.3                      0                        4.5430821478861174E-13-1.471681097602225E-13i
0.3                       0.15                     0.15                     2.555547989143063E-11-7.769917060562429E-11i
0.3                       0.15                     -0.15                    -2.471893747014986E-11+7.74003707772148E-11i
0.15                      0.3                      0.15                     2.548003608159292E-11-7.761829571869965E-11i
0.15                      0.3                      -0.15                    -2.4571738697600734E-11+7.729722599970922E-11i
0.45                      0.15                     0                        4.715975576872458E-13-2.1161414372431935E-13i
0.15                      0.45                     0                        3.42964022666857E-13-2.7473424459391467E-14i
0.15                      0.15                     0.3                      5.592946715777489E-11-1.6005658737629843E-10i
0.15                      0.15                     -0.3                     -5.5180266597202006E-11+1.5971242757195672E-10i
-0.3                      0.3                      0                        4.828434105949188E-13-1.8267116681904994E-13i
-0.3                      0.15                     0.15                     2.5619064058540193E-11-7.778226139925429E-11i
-0.3                      0.15                     -0.15                    -2.477634666102277E-11+7.747797796122305E-11i
-0.15                     0.3                      0.15                     2.5530044454561613E-11-7.762121289849768E-11i
-0.15                     0.3                      -0.15                    -2.4610895912672113E-11+7.730999306525653E-11i
-0.45                     0.15                     0                        4.4458841994563497E-13-1.6029171397657222E-13i
-0.15                     0.45                     0                        4.400749940173511E-13-1.3484289073748183E-13i
-0.15                     0.15                     0.3                      5.605367918926916E-11-1.6013549980538233E-10i
-0.15                     0.15                     -0.3                     -5.5252586044011356E-11+1.5984277890116388E-10i
0.3                       -0.3                     0                        5.634584482100777E-13-3.370332718423217E-13i
0.3                       -0.15                    0.15                     2.5756584327540293E-11-7.7953986313409E-11i
0.3                       -0.15                    -0.15                    -2.4851372016060358E-11+7.754850277264436E-11i
0.15                      -0.3                     0.15                     2.5664829621604036E-11-7.787794615072617E-11i
0.15                      -0.3                     -0.15                    -2.473489219339678E-11+7.7427376518914E-11i
0.45                      -0.15                    0                        3.8390695127915644E-13-1.8885949782082557E-13i
0.15                      -0.45                    0                        4.768233210013232E-13-2.671720192356557E-13i
0.15                      -0.15                    0.3                      5.578346025640791E-11-1.5997984494376902E-10i
0.15                      -0.15                    -0.3                     -5.5114538308724174E-11+1.597257217848406E-10i
-0.3                      -0.3                     0                        2.937929397073688E-13+2.19526752071367E-14i
-0.3                      -0.15                    0.15                     2.5622559694492462E-11-7.780630465385638E-11i
-0.3                      -0.15                    -0.15                    -2.4725126365199968E-11+7.740828669793568E-11i
-0.15                     -0.3                     0.15                     2.566090683754025E-11-7.782539029927859E-11i
-0.15                     -0.3                     -0.15                    -2.4724072095708068E-11+7.732887864941392E-11i
-0.45                     -0.15                    0                        4.458137503740046E-13-1.4404718341108585E-13i
-0.15                     -0.45                    0                        2.9350020323653623E-13+3.0474995911268476E-15i
-0.15                     -0.15                    0.3                      5.602554477144928E-11-1.601387203496868E-10i
-0.15                     -0.15                    -0.3                     -5.529973661695755E-11+1.5983347236901131E-10i
0.3                       0                        0.3                      5.3950580684654734E-11-1.5842737906275549E-10i
0.45                      0                        0.15                     2.3734803188350843E-11-7.623880389309977E-11i
0.15                      0                        0.45                     9.077449336118109E-11-2.461144255710376E-10i
-0.3                      0                        0.3                      5.4125689376367545E-11-1.585790123986842E-10i
-0.45                     0                        0.15                     2.3820070642723598E-11-7.627762196372582E-11i
-0.15                     0                        0.45                     9.081431847094066E-11-2.4613930423491573E-10i
0.3                       0                        -0.3                     -5.3266122666017186E-11+1.582054821635148E-10i
0.45                      0                        -0.15                    -2.289585484748768E-11+7.588753234105669E-11i
0.15                      0                        -0.45                    -8.988034219617883E-11+2.4556291612341553E-10i
-0.3                      0                        -0.3                     -5.317114624953747E-11+1.5809551386910873E-10i
-0.45                     0                        -0.15                    -2.3032929074196813E-11+7.603671049087893E-11i
-0.15                     0                        -0.45                    -9.007344510125227E-11+2.4573693342307096E-10i
0                         0.3                      0.3                      5.4082861508880265E-11-1.5855930505725028E-10i
0                         0.45                     0.15                     2.3753338793587977E-11-7.615160999926273E-11i
0                         0.15                     0.45                     9.105347584409441E-11-2.4628918931701547E-10i
0                         -0.3                     0.3                      5.397645004237257E-11-1.5851937524355885E-10i
0                         -0.45                    0.15                     2.3832944119509504E-11-7.633008633431559E-11i
0                         -0.15                    0.45                     9.097984137281724E-11-2.462782081487721E-10i
0                         0.3                      -0.3                     -5.341583926232455E-11+1.583480400607438E-10i
0                         0.45                     -0.15                    -2.289774938830541E-11+7.591720888127667E-11i
0                         0.15                     -0.45                    -9.001471964871128E-11+2.4569391747339775E-10i
0                         -0.3                     -0.3                     -5.318838531447789E-11+1.5810716826161544E-10i
0                         -0.45                    -0.15                    -2.272351414822176E-11+7.566597570813295E-11i
0                         -0.15                    -0.45                    -9.015680788193733E-11+2.4578938512182813E-10i
0.6                       0                        0                        3.6714237082587835E-13-1.0344123443025815E-13i
-0.6                      0                        0                        4.3763051077223197E-13-1.2597775682265228E-13i
0                         0.6                      0                        5.866370712217631E-13-2.5369563779701673E-13i
0                         -0.6                     0                        3.618353496195334E-13-9.168304705099208E-14i
0                         0                        0.6                      1.336312674704002E-10-3.3807475743601856E-10i
0                         0                        -0.6                     -1.326627720055046E-10+3.3739899504443187E-10i
0.45                      0.45                     0                        3.949764490878518E-13-8.874880337236721E-14i
0.45                      0.3                      0.15                     2.108977769569508E-11-7.307797482068413E-11i
0.45                      0.3                      -0.15                    -2.024433892890284E-11+7.284803491596016E-11i
0.3                       0.45                     0.15                     2.1067300581763327E-11-7.316417771219244E-11i
0.3                       0.45                     -0.15                    -2.0236452743344675E-11+7.287050063788618E-11i
0.6                       0.3                      0                        3.930251350063138E-13-1.223913809411846E-13i
0.3                       0.6                      0                        5.649445245140968E-13-2.714095805786059E-13i
0.3                       0.3                      0.3                      4.922688420920538E-11-1.537774693288797E-10i
0.3                       0.3                      -0.3                     -4.837878332574702E-11+1.5347752712522728E-10i
0.45                      0.15                     0.3                      4.780165647094598E-11-1.530337177100052E-10i
0.6                       0.15                     0.15                     1.961143604340534E-11-7.206238729627261E-11i
0.3                       0.15                     0.45                     8.415340788841885E-11-2.4075004278091266E-10i
0.45                      0.15                     -0.3                     -4.710410018521962E-11+1.526914186918845E-10i
0.6                       0.15                     -0.15                    -1.89533079119349E-11+7.198944019068277E-11i
0.3                       0.15                     -0.45                    -8.308923827972112E-11+2.4022389851082553E-10i
0.15                      0.45                     0.3                      4.784102234991636E-11-1.5290939943078412E-10i
0.15                      0.6                      0.15                     1.972528001096516E-11-7.212366975088426E-11i
0.15                      0.3                      0.45                     8.412089655022438E-11-2.406459950991211E-10i
0.15                      0.45                     -0.3                     -4.6856578569667664E-11+1.524902445686974E-10i
0.15                      0.6                      -0.15                    -1.8959647779416123E-11+7.213732987297405E-11i
0.15                      0.3                      -0.45                    -8.332264148834526E-11+2.4033119638937204E-10i
0.75                      0.15                     0                        4.016756292097599E-13-1.577906048969862E-13i
0.15                      0.75                     0                        6.050892522195927E-13-3.40201266703223E-13i
0.15                      0.15                     0.6                      1.2877779785236134E-10-3.346945970515187E-10i
0.15                      0.15                     -0.6                     -1.2811776261183818E-10+3.340517012290349E-10i
-0.45                     0.45                     0                        4.134842360750259E-13-4.2785867756259524E-14i
-0.45                     0.3                      0.15                     2.109686973386086E-11-7.308526286860862E-11i
-0.45                     0.3                      -0.15                    -2.0129449998527646E-11+7.26976261011396E-11i
-0.3                      0.45                     0.15                     2.1180413145923656E-11-7.317353007473028E-11i
-0.3                      0.45                     -0.15                    -2.026889502766688E-11+7.295546280814658E-11i
-0.6                      0.3                      0                        5.211040736767778E-13-2.618845648153588E-13i
-0.3                      0.6                      0                        4.306919247288297E-13-8.019774919851925E-14i
-0.3                      0.3                      0.3                      4.91027764049403E-11-1.5373700800329418E-10i
-0.3                      0.3                      -0.3                     -4.8516787862406756E-11+1.5362215580907494E-10i
-0.45                     0.15                     0.3                      4.7819017006623556E-11-1.5289997781710526E-10i
-0.6                      0.15                     0.15                     1.9757327822435232E-11-7.223521333035798E-11i
-0.3                      0.15                     0.45                     8.41579939655428E-11-2.406193872927199E-10i
-0.45                     0.15                     -0.3                     -4.679942735431164E-11+1.5247532990678802E-10i
-0.6                      0.15                     -0.15                    -1.8904605825637875E-11+7.201882692987593E-11i
-0.3                      0.15                     -0.45                    -8.332256018313045E-11+2.403882864032897E-10i
-0.15                     0.45                     0.3                      4.794228886877913E-11-1.5309193622247107E-10i
-0.15                     0.6                      0.15                     1.990481284065835E-11-7.250937545990758E-11i
-0.15                     0.3                      0.45                     8.422897168844566E-11-2.4075330969320195E-10i
-0.15                     0.45                     -0.3                     -4.685346886948099E-11+1.5262345151322992E-10i
-0.15                     0.6                      -0.15                    -1.8943004809433576E-11+7.208863425488138E-11i
-0.15                     0.3                      -0.45                    -8.324226860163968E-11+2.4033780742083905E-10i
-0.75                     0.15                     0                        4.801711875956553E-13-1.4353675752782235E-13i
-0.15                     0.75                     0                        5.98276312581796E-13-2.6178715000313384E-13i
-0.15                     0.15                     0.6                      1.289497323561406E-10-3.347115689805395E-10i
-0.15                     0.15                     -0.6                     -1.2816179239391003E-10+3.3415503566924135E-10i
0.45                      -0.45                    0                        2.766553605781431E-13+6.492880365699085E-14i
0.45                      -0.3                     0.15                     2.095165349653507E-11-7.296215896863213E-11i
0.45                      -0.3                     -0.15                    -2.0260482004026654E-11+7.283566384425605E-11i
0.3                       -0.45                    0.15                     2.0944342075922233E-11-7.300956967673018E-11i
0.3                       -0.45                    -0.15                    -2.006053892134536E-11+7.261239008051544E-11i
0.6                       -0.3                     0                        4.720607420648246E-13-2.605485385322149E-13i
0.3                       -0.6                     0                        2.821525035518737E-13+5.244834302883411E-14i
0.3                       -0.3                     0.3                      4.8920661578292885E-11-1.5361903330449362E-10i
0.3                       -0.3                     -0.3                     -4.8385584655848964E-11+1.5348417660485525E-10i
0.45                      -0.15                    0.3                      4.785387314285306E-11-1.5303323523252854E-10i
0.6                       -0.15                    0.15                     1.9876510991719398E-11-7.254653362501202E-11i
0.3                       -0.15                    0.45                     8.428130571344716E-11-2.4091128258054276E-10i
0.45                      -0.15                    -0.3                     -4.6750258936892137E-11+1.5234725350815184E-10i
0.6                       -0.15                    -0.15                    -1.9306456702247216E-11+7.24922427923304E-11i
0.3                       -0.15                    -0.45                    -8.329842609892829E-11+2.4027436994129335E-10i
0.15                      -0.45                    0.3                      4.7544244410537757E-11-1.5271772259450022E-10i
0.15                      -0.6                     0.15                     1.972353963633976E-11-7.221899221307757E-11i
0.15                      -0.3                     0.45                     8.417298370883795E-11-2.4073802121599945E-10i
0.15                      -0.45                    -0.3                     -4.7038608072191093E-11+1.5271430430684416E-10i
0.15                      -0.6                     -0.15                    -1.898532968899312E-11+7.205474537306809E-11i
0.15                      -0.3                     -0.45                    -8.312196141051881E-11+2.401332592785024E-10i
0.75                      -0.15                    0                        2.9470121021277865E-13+1.756984634420976E-14i
0.15                      -0.75                    0                        4.2516352877763565E-13-1.7012565346664136E-13i
0.15                      -0.15                    0.6                      1.287123394587306E-10-3.345076179099536E-10i
0.15                      -0.15                    -0.6                     -1.279988893582501E-10+3.3397775893484006E-10i
-0.45                     -0.45                    0                        6.090779859919787E-13-3.630513595907742E-13i
-0.45                     -0.3                     0.15                     2.090271952687206E-11-7.289715523666432E-11i
-0.45                     -0.3                     -0.15                    -2.0070941686837785E-11+7.265029089042825E-11i
-0.3                      -0.45                    0.15                     2.097344093567894E-11-7.299590101253292E-11i
-0.3                      -0.45                    -0.15                    -2.0211542150529807E-11+7.280317180858192E-11i
-0.6                      -0.3                     0                        2.44522183946743E-13+2.2032666972719437E-13i
-0.3                      -0.6                     0                        3.9639874478795646E-13-1.5165370388367819E-13i
-0.3                      -0.3                     0.3                      4.909781880068804E-11-1.5367607246914928E-10i
-0.3                      -0.3                     -0.3                     -4.828873729560089E-11+1.5344315461639195E-10i
-0.45                     -0.15                    0.3                      4.7806967266169946E-11-1.5291740550330329E-10i
-0.6                      -0.15                    0.15                     1.9822891665464865E-11-7.232260058716492E-11i
-0.3                      -0.15                    0.45                     8.408904784087348E-11-2.407427617265496E-10i
-0.45                     -0.15                    -0.3                     -4.7154673247572446E-11+1.5286160599989948E-10i
-0.6                      -0.15                    -0.15                    -1.8905476904495987E-11+7.202688445563505E-11i
-0.3                      -0.15                    -0.45                    -8.32194838036714E-11+2.403059176537621E-10i
-0.15                     -0.45                    0.3                      4.769718756997018E-11-1.5291922579858843E-10i
-0.15                     -0.6                     0.15                     1.9783154312557432E-11-7.238822949665076E-11i
-0.15                     -0.3                     0.45                     8.408075176120601E-11-2.406902122390466E-10i
-0.15                     -0.45                    -0.3                     -4.6743834970193686E-11+1.5238341175203834E-10i
-0.15                     -0.6                     -0.15                    -1.8921151369855364E-11+7.21215792155624E-11i
-0.15                     -0.3                     -0.45                    -8.318090805470601E-11+2.4025715789692004E-10i
-0.75                     -0.15                    0                        1.412957666102535E-13+4.067829926092286E-13i
-0.15                     -0.75                    0                        3.2455069024925897E-13-5.715537295898908E-14i
-0.15                     -0.15                    0.6                      1.28641028334563E-10-3.3451516603354374E-10i
-0.15                     -0.15                    -0.6                     -1.2791363669102995E-10+3.340455331952021E-10i
0.45                      0                        0.45                     7.863032013874089E-11-2.3691429321929145E-10i
0.6                       0                        0.3                      4.30027239250053E-11-1.4946290023829684E-10i
0.3                       0                        0.6                      1.2451393678427035E-10-3.31952963868718E-10i
0.75                      0                        0.15                     1.700817029517633E-11-7.031536285674405E-11i
0.15                      0                        0.75                     1.81330073852643E-10-4.3343377618100814E-10i
-0.45                     0                        0.45                     7.871561705362756E-11-2.369836315771521E-10i
-0.6                      0                        0.3                      4.306606294140477E-11-1.4934818701053024E-10i
-0.3                      0                        0.6                      1.2458155478971047E-10-3.3198659848174743E-10i
-0.75                     0                        0.15                     1.7043818275541892E-11-7.018542942310681E-11i
-0.15                     0                        0.75                     1.815962871846411E-10-4.334741266969112E-10i
0.45                      0                        -0.45                    -7.772243583450798E-11+2.365498407125937E-10i
0.6                       0                        -0.3                     -4.2108253003361866E-11+1.4898358439426035E-10i
0.3                       0                        -0.6                     -1.2410641820097055E-10+3.316201626719533E-10i
0.75                      0                        -0.15                    -1.635779428788739E-11+7.012520476131579E-11i
0.15                      0                        -0.75                    -1.798957898216646E-10+4.32443272450315E-10i
-0.45                     0                        -0.45                    -7.763978104338785E-11+2.363709906974702E-10i
-0.6                      0                        -0.3                     -4.2216112561077923E-11+1.491521354494019E-10i
-0.3                      0                        -0.6                     -1.2417559208159314E-10+3.3176186019439097E-10i
-0.75                     0                        -0.15                    -1.604117520084181E-11+6.981565798124927E-11i
-0.15                     0                        -0.75                    -1.804672288694967E-10+4.3292978391304006E-10i
0                         0.45                     0.45                     7.88010510436738E-11-2.369287019158787E-10i
0                         0.6                      0.3                      4.322016354640363E-11-1.4949053721754813E-10i
0                         0.3                      0.6                      1.2441756225688598E-10-3.3175846778838354E-10i
0                         0.75                     0.15                     1.7116852930314435E-11-7.018927430788584E-11i
0                         0.15                     0.75                     1.8177110673566268E-10-4.3372757766208844E-10i
0                         -0.45                    0.45                     7.881997220400999E-11-2.3712389572403593E-10i
0                         -0.6                     0.3                      4.292190724472264E-11-1.4935248200590385E-10i
0                         -0.3                     0.6                      1.2422249870051082E-10-3.3176852562676853E-10i
0                         -0.75                    0.15                     1.6954395185953676E-11-7.026782506890665E-11i
0                         -0.15                    0.75                     1.8092472765859425E-10-4.3325748416203634E-10i
0                         0.45                     -0.45                    -7.778780288384596E-11+2.3649280745294896E-10i
0                         0.6                      -0.3                     -4.2056031377718156E-11+1.4906388846583487E-10i
0                         0.3                      -0.6                     -1.2374253963858313E-10+3.313643868193946E-10i
0                         0.75                     -0.15                    -1.615171456630188E-11+7.000149065744837E-11i
0                         0.15                     -0.75                    -1.797072265169785E-10+4.324573324686531E-10i
0                         -0.45                    -0.45                    -7.77835136296638E-11+2.364784265023606E-10i
0                         -0.6                     -0.3                     -4.2187317467831034E-11+1.4911922462138768E-10i
0                         -0.3                     -0.6                     -1.2334040330017947E-10+3.311415491419668E-10i
0                         -0.75                    -0.15                    -1.6311282838633497E-11+7.003904317166678E-11i
0                         -0.15                    -0.75                    -1.8038703765890612E-10+4.325880110604038E-10i
0.9                       0                        0                        6.040208095398879E-13-5.764070590312232E-13i
-0.9                      0                        0                        5.022563285767972E-13-8.769775249048455E-14i
0                         0.9                      0                        5.39965730636682E-13-1.9880683706970617E-13i
0                         -0.9                     0                        6.397237457634812E-13-6.223740149058841E-13i
0                         0                        0.9                      2.494473529537526E-10-5.408880562136338E-10i
0                         0                        -0.9                     -2.5126147470770304E-10+5.388937963546855E-10i
0.6                       0.6                      0                        2.6145186520620097E-13+2.6266934619863026E-13i
0.6                       0.45                     0.15                     1.3637130002089888E-11-6.425093418623052E-11i
0.6                       0.45                     -0.15                    -1.2880509582782465E-11+6.421784259272792E-11i
0.45                      0.6                      0.15                     1.3795815755340504E-11-6.445120957529513E-11i
0.45                      0.6                      -0.15                    -1.3009567687013738E-11+6.431931743029424E-11i
0.75                      0.45                     0                        1.6449343121637428E-13+3.960142220929889E-13i
0.45                      0.75                     0                        4.75673421240535E-13-1.0057100625074945E-13i
0.45                      0.45                     0.3                      3.7427023727137487E-11-1.4129621020560002E-10i
0.45                      0.45                     -0.3                     -3.6612941086956265E-11+1.4107698348958865E-10i
0.6                       0.3                      0.3                      3.645331166898369E-11-1.4111153811292694E-10i
0.75                      0.3                      0.15                     1.3319229242281106E-11-6.488211487198383E-11i