% Model:              Untitled.mph
% Version:            COMSOL 5.5.0.359
% Date:               Oct 11 2022, 16:36
% Dimension:          3
% Nodes:              891
% Expressions:        1
% Description:        Electric potential
% Length unit:        nm
% x                       y                        z                        V (V)
0                         0                        0                        1.1707303181147038E-11+1.4052931805119503E-12i
0.15                      0.15                     0                        1.2212350964026344E-11+9.836623106421138E-13i
-0.15                     0.15                     0                        1.1202533310212292E-11+1.0764138769380717E-12i
0.15                      -0.15                    0                        1.2388873490757723E-11+1.6404439240944104E-12i
-0.15                     -0.15                    0                        1.1380409772808201E-11+1.7665520527015967E-12i
0.15                      0                        0.15                     -1.2112967777624598E-11+3.3693013584985676E-13i
-0.15                     0                        0.15                     -1.2988012739230498E-11+4.896135225176207E-13i
0.15                      0                        -0.15                    3.66955057624301E-11+2.5045903721003294E-12i
-0.15                     0                        -0.15                    3.529106582450566E-11+2.5933739083035905E-12i
0                         0.15                     0.15                     -1.2596767433442604E-11-1.3061080356264107E-13i
0                         -0.15                    0.15                     -1.255938236214457E-11+8.391318323053123E-13i
0                         0.15                     -0.15                    3.5824483352079264E-11+2.2528383647076144E-12i
0                         -0.15                    -0.15                    3.634720277475938E-11+2.751820769479545E-12i
0.3                       0                        0                        1.267820331277918E-11+1.3199613477788067E-12i
-0.3                      0                        0                        1.1092230646854843E-11+1.5261811468559452E-12i
0                         0.3                      0                        1.1546952367515226E-11+5.697270103487058E-13i
0                         -0.3                     0                        1.2239184350150588E-11+1.9238778138808884E-12i
0                         0                        0.3                      -3.903748075738576E-11-4.963116140323082E-13i
0                         0                        -0.3                     6.239414777400625E-11+3.916964358127956E-12i
0.3                       0.3                      0                        1.2580124359443445E-11+5.957997477213798E-13i
0.3                       0.15                     0.15                     -1.1121057743495743E-11-2.00742943082037E-13i
0.3                       0.15                     -0.15                    3.673806683465787E-11+2.2448779839369923E-12i
0.15                      0.3                      0.15                     -1.1499787452922142E-11-7.708170195240537E-13i
0.15                      0.3                      -0.15                    3.5747473156943286E-11+1.8776301808059852E-12i
0.45                      0.15                     0                        1.3252657681083142E-11+1.0618880279220972E-12i
0.15                      0.45                     0                        1.1968052886339791E-11+1.564341140594851E-13i
0.15                      0.15                     0.3                      -3.768473538685072E-11-1.3467326165105969E-12i
0.15                      0.15                     -0.3                     6.233370493113442E-11+3.6609059141973545E-12i
-0.3                      0.3                      0                        1.1086246723982782E-11+7.248091973592731E-13i
-0.3                      0.15                     0.15                     -1.2249878531745323E-11+7.099065426522612E-14i
-0.3                      0.15                     -0.15                    3.3764852708228684E-11+2.3207409723013376E-12i
-0.15                     0.3                      0.15                     -1.2604084758082871E-11-6.532663006873247E-13i
-0.15                     0.3                      -0.15                    3.4815670661429487E-11+1.9484388797451784E-12i
-0.45                     0.15                     0                        1.0890208070153514E-11+1.1804275218811016E-12i
-0.15                     0.45                     0                        1.1524994232245315E-11+2.3495991128315203E-13i
-0.15                     0.15                     0.3                      -3.847660251648653E-11-1.1222192229248736E-12i
-0.15                     0.15                     -0.3                     6.061625763598465E-11+3.764954173178882E-12i
0.3                       -0.3                     0                        1.3629353466773984E-11+1.7914938703877785E-12i
0.3                       -0.15                    0.15                     -1.0600348489697766E-11+6.810619549763889E-13i
0.3                       -0.15                    -0.15                    3.713125689058037E-11+2.6609269584141118E-12i
0.15                      -0.3                     0.15                     -1.0787160379984085E-11+1.0732122084531003E-12i
0.15                      -0.3                     -0.15                    3.6940957515709644E-11+2.8236399621913593E-12i
0.45                      -0.15                    0                        1.3901329805375435E-11+1.5741249011657553E-12i
0.15                      -0.45                    0                        1.3692150002751449E-11+2.0103078214112673E-12i
0.15                      -0.15                    0.3                      -3.78091972705931E-11-2.967947250511362E-14i
0.15                      -0.15                    -0.3                     6.309797457148558E-11+3.9755388020397615E-12i
-0.3                      -0.3                     0                        1.1927927290615956E-11+2.057041167265921E-12i
-0.3                      -0.15                    0.15                     -1.206523044279456E-11+9.97573927998828E-13i
-0.3                      -0.15                    -0.15                    3.505556999318245E-11+2.8768296147467087E-12i
-0.15                     -0.3                     0.15                     -1.1846849969811805E-11+1.2327776985688344E-12i
-0.15                     -0.3                     -0.15                    3.568625837216944E-11+2.924010456360168E-12i
-0.45                     -0.15                    0                        1.2248696838888672E-11+1.909841724543969E-12i
-0.15                     -0.45                    0                        1.2330799432769988E-11+2.105369239997605E-12i
-0.15                     -0.15                    0.3                      -3.869669627299357E-11+1.7824323251024117E-13i
-0.15                     -0.15                    -0.3                     6.140083633692167E-11+4.089504056787186E-12i
0.3                       0                        0.3                      -3.6621422531953375E-11-6.767703831494878E-13i
0.45                      0                        0.15                     -9.896162945919824E-12+3.173927900636435E-13i
0.15                      0                        0.45                     -6.838212782371954E-11-1.5314751810497636E-12i
-0.3                      0                        0.3                      -3.8074915606239635E-11-3.0553170974017297E-13i
-0.45                     0                        0.15                     -1.1635616065039123E-11+6.26113576200037E-13i
-0.15                     0                        0.45                     -6.87244397021634E-11-1.2289895648822916E-12i
0.3                       0                        -0.3                     6.299492120329625E-11+3.854870145664769E-12i
0.45                      0                        -0.15                    3.727532747965066E-11+2.497891162007928E-12i
0.15                      0                        -0.45                    9.261487232375782E-11+5.555904407064892E-12i
-0.3                      0                        -0.3                     5.917213525070243E-11+4.028766299925702E-12i
-0.45                     0                        -0.15                    3.325709661430737E-11+2.5940944309875546E-12i
-0.15                     0                        -0.45                    9.06538372725447E-11+5.7539674862283545E-12i
0                         0.3                      0.3                      -3.78493742158748E-11-2.106972921398413E-12i
0                         0.45                     0.15                     -1.158683635701688E-11-1.2387126053586482E-12i
0                         0.15                     0.45                     -6.819200430736909E-11-2.360561612867221E-12i
0                         -0.3                     0.3                      -3.748448409061244E-11+5.163074512360929E-13i
0                         -0.45                    0.15                     -1.0407737336745223E-11+1.3626330319559812E-12i
0                         -0.15                    0.45                     -6.879139332611752E-11-5.864690172668846E-13i
0                         0.3                      -0.3                     6.133584987445938E-11+3.3953745934014427E-12i
0                         0.45                     -0.15                    3.532680242637267E-11+1.551216728577293E-12i
0                         0.15                     -0.45                    9.161176823183655E-11+5.47670195257354E-12i
0                         -0.3                     -0.3                     6.217423917836184E-11+4.033731492614539E-12i
0                         -0.45                    -0.15                    3.623466062704259E-11+2.912461840981602E-12i
0                         -0.15                    -0.45                    9.216781880440706E-11+5.609805502140186E-12i
0.6                       0                        0                        1.4271470046196837E-11+1.4130844832380325E-12i
-0.6                      0                        0                        1.209754444326192E-11+1.5398722494825875E-12i
0                         0.6                      0                        1.2023347091168287E-11-1.3390360644319608E-13i
0                         -0.6                     0                        1.354053204057044E-11+2.117557341602577E-12i
0                         0                        0.6                      -1.0537327195648436E-10-2.2031872716332736E-12i
0                         0                        -0.6                     1.2756831270146212E-10+7.731276666566121E-12i
0.45                      0.45                     0                        1.2976290105111812E-11+3.6959194435712276E-13i
0.45                      0.3                      0.15                     -9.262769500166683E-12-5.417756364622779E-13i
0.45                      0.3                      -0.15                    3.5665534202198315E-11+1.9584726732375485E-12i
0.3                       0.45                     0.15                     -9.73939444873995E-12-1.187154524213531E-12i
0.3                       0.45                     -0.15                    3.501042515473001E-11+1.5537926002480896E-12i
0.6                       0.3                      0                        1.356396509170744E-11+8.814009229854436E-13i
0.3                       0.6                      0                        1.274552088537308E-11-4.7206745416844844E-14i
0.3                       0.3                      0.3                      -3.5286146403310035E-11-2.2255299246225836E-12i
0.3                       0.3                      -0.3                     6.049257942367727E-11+3.3215588519941236E-12i
0.45                      0.15                     0.3                      -3.45192030508969E-11-1.2676115345330235E-12i
0.6                       0.15                     0.15                     -8.440983643169275E-12+1.056950541772983E-13i
0.3                       0.15                     0.45                     -6.5629846144378E-11-2.657126128511211E-12i
0.45                      0.15                     -0.3                     6.143412177048777E-11+3.634080258170684E-12i
0.6                       0.15                     -0.15                    3.638893501195429E-11+2.3105631552005964E-12i
0.3                       0.15                     -0.45                    9.10231273104607E-11+5.431131098779511E-12i
0.15                      0.45                     0.3                      -3.559103943271277E-11-3.0025150079104824E-12i
0.15                      0.6                      0.15                     -1.0072219294981648E-11-1.583020325489025E-12i
0.15                      0.3                      0.45                     -6.584009547227841E-11-3.9120771812938634E-12i
0.15                      0.45                     -0.3                     6.017115041499259E-11+2.978374500335228E-12i
0.15                      0.6                      -0.15                    3.494696018562206E-11+1.2227690349371948E-12i
0.15                      0.3                      -0.45                    8.997686308028161E-11+5.091009392665102E-12i
0.75                      0.15                     0                        1.4218539091964206E-11+1.3215381843426514E-12i
0.15                      0.75                     0                        1.2878177755024263E-11-2.888451130052875E-13i
0.15                      0.15                     0.6                      -1.0341518586118445E-10-3.768881020371526E-12i
0.15                      0.15                     -0.6                     1.2679313965164272E-10+7.654068214624363E-12i
-0.45                     0.45                     0                        1.1530129466901357E-11+4.633363949874543E-13i
-0.45                     0.3                      0.15                     -1.0828283134530977E-11-3.2068773671489945E-13i
-0.45                     0.3                      -0.15                    3.292235776637626E-11+2.0334832591991065E-12i
-0.3                      0.45                     0.15                     -1.060098412250215E-11-9.761549170638766E-13i
-0.3                      0.45                     -0.15                    3.3481386923773416E-11+1.602823382366318E-12i
-0.6                      0.3                      0                        1.1868426160020036E-11+9.207526696550951E-13i
-0.3                      0.6                      0                        1.1882186544819268E-11+1.2540300087296164E-14i
-0.3                      0.3                      0.3                      -3.6142642029462956E-11-1.7928552491016788E-12i
-0.3                      0.3                      -0.3                     5.78044474674485E-11+3.4568387454340003E-12i
-0.45                     0.15                     0.3                      -3.613768187967321E-11-8.50081279184915E-13i
-0.6                      0.15                     0.15                     -1.024026049087747E-11+2.3488089968596623E-13i
-0.3                      0.15                     0.45                     -6.615869218121788E-11-2.0424648316406655E-12i
-0.45                     0.15                     -0.3                     5.660473049083011E-11+3.822229319043501E-12i
-0.6                      0.15                     -0.15                    3.298714446917911E-11+2.3370577674197177E-12i
-0.3                      0.15                     -0.45                    8.716779625812683E-11+5.797692252309758E-12i
-0.15                     0.45                     0.3                      -3.591678570709686E-11-2.712674084836604E-12i
-0.15                     0.6                      0.15                     -1.0284402041303314E-11-1.4683353020712955E-12i
-0.15                     0.3                      0.45                     -6.595805442397754E-11-3.3747307647299555E-12i
-0.15                     0.45                     -0.3                     5.912769774441844E-11+3.003474792085354E-12i
-0.15                     0.6                      -0.15                    3.416064775511077E-11+1.2013762888592724E-12i
-0.15                     0.3                      -0.45                    8.900380727698526E-11+5.2812917836664264E-12i
-0.75                     0.15                     0                        1.2797883872298825E-11+1.1627424393343168E-12i
-0.15                     0.75                     0                        1.2339058140675856E-11-2.910414552719386E-13i
-0.15                     0.15                     0.6                      -1.0286699429489683E-10-3.215861158277652E-12i
-0.15                     0.15                     -0.6                     1.2490553492227397E-10+7.931430041206843E-12i
0.45                      -0.45                    0                        1.493792945196401E-11+1.7953088518337937E-12i
0.45                      -0.3                     0.15                     -7.52373305492257E-12+8.524198959637058E-13i
0.45                      -0.3                     -0.15                    3.686966648883071E-11+2.664363742716141E-12i
0.3                       -0.45                    0.15                     -7.699467409942547E-12+1.16382638524176E-12i
0.3                       -0.45                    -0.15                    3.684737946381003E-11+2.8093469373140057E-12i
0.6                       -0.3                     0                        1.5006826045180177E-11+1.5747197095733169E-12i
0.3                       -0.6                     0                        1.4945091801738E-11+1.991643199461357E-12i
0.3                       -0.3                     0.3                      -3.337628704947936E-11+2.7439184612927614E-13i
0.3                       -0.3                     -0.3                     6.214858576211668E-11+3.9169998835071514E-12i
0.45                      -0.15                    0.3                      -3.3110561054480387E-11-2.3551728210217615E-13i
0.6                       -0.15                    0.15                     -7.37535643779968E-12+6.452480090683965E-13i
0.3                       -0.15                    0.45                     -6.481581091914783E-11-9.22255828722071E-13i
0.45                      -0.15                    -0.3                     6.221714485234616E-11+3.839646986567447E-12i
0.6                       -0.15                    -0.15                    3.694278602646347E-11+2.3152888724446098E-12i
0.3                       -0.15                    -0.45                    9.161354812058312E-11+5.480218741973629E-12i
0.15                      -0.45                    0.3                      -3.4547181187968665E-11+6.288228670468602E-13i
0.15                      -0.6                     0.15                     -8.181949168964237E-12+1.3687633714078263E-12i
0.15                      -0.3                     0.45                     -6.538061616493007E-11-1.893232651411053E-13i
0.15                      -0.45                    -0.3                     6.165445085484843E-11+3.938020544518888E-12i
0.15                      -0.6                     -0.15                    3.650960297880919E-11+2.880570258658655E-12i
0.15                      -0.3                     -0.45                    9.180958048891174E-11+5.4554069449072464E-12i
0.75                      -0.15                    0                        1.505175427760326E-11+1.1596267474090487E-12i
0.15                      -0.75                    0                        1.484345709387349E-11+2.0962357439436218E-12i
0.15                      -0.15                    0.6                      -1.036115752371236E-10-1.4441897906412232E-12i
0.15                      -0.15                    -0.6                     1.2745299425881429E-10+7.549606680328196E-12i
-0.45                     -0.45                    0                        1.281308895370402E-11+2.263317918971345E-12i
-0.45                     -0.3                     0.15                     -9.867531821322067E-12+1.3664873630322094E-12i
-0.45                     -0.3                     -0.15                    3.442379816449287E-11+3.0138482777875554E-12i
-0.3                      -0.45                    0.15                     -9.969259649042414E-12+1.4966043583539626E-12i
-0.3                      -0.45                    -0.15                    3.47294158024069E-11+3.016040607746946E-12i
-0.6                      -0.3                     0                        1.2932457923496653E-11+2.0857838019666795E-12i
-0.3                      -0.6                     0                        1.318355530393559E-11+2.2584994580763494E-12i
-0.3                      -0.3                     0.3                      -3.6389093680500225E-11+6.177665460906963E-13i
-0.3                      -0.3                     -0.3                     5.919066584499567E-11+4.10587663083868E-12i
-0.45                     -0.15                    0.3                      -3.6311382449439685E-11+2.227053994287943E-13i
-0.6                      -0.15                    0.15                     -9.740019392993644E-12+9.835343430179977E-13i
-0.3                      -0.15                    0.45                     -6.741158596025662E-11-5.462776160678837E-13i
-0.45                     -0.15                    -0.3                     5.8145506838215426E-11+4.162850070732359E-12i
-0.6                      -0.15                    -0.15                    3.4142241206418733E-11+2.8251459760783794E-12i
-0.3                      -0.15                    -0.45                    8.80277055380474E-11+5.80945191731203E-12i
-0.15                     -0.45                    0.3                      -3.57170059077143E-11+8.081257247431508E-13i
-0.15                     -0.6                     0.15                     -9.264259235551284E-12+1.4990659982061592E-12i
-0.15                     -0.3                     0.45                     -6.68899725923797E-11-9.819913937837294E-15i
-0.15                     -0.45                    -0.3                     6.043126654071138E-11+4.026943268004528E-12i
-0.15                     -0.6                     -0.15                    3.5534059111388726E-11+2.9729953859887702E-12i
-0.15                     -0.3                     -0.45                    8.979472505946585E-11+5.5518948594250725E-12i
-0.75                     -0.15                    0                        1.3244875173913571E-11+1.6468402011137191E-12i
-0.15                     -0.75                    0                        1.4014452856124917E-11+2.187592816715693E-12i
-0.15                     -0.15                    0.6                      -1.0462991898774607E-10-1.2620578377337227E-12i
-0.15                     -0.15                    -0.6                     1.2538691972928837E-10+7.758461561990004E-12i
0.45                      0                        0.45                     -6.32066738477586E-11-1.6943484526676198E-12i
0.6                       0                        0.3                      -3.2502577942057154E-11-6.119079018234677E-13i
0.3                       0                        0.6                      -1.0206732705615736E-10-2.6207346293496256E-12i
0.75                      0                        0.15                     -7.017160320241651E-12+5.695239024077409E-13i
0.15                      0                        0.75                     -1.498051695787166E-10-3.404658495901263E-12i
-0.45                     0                        0.45                     -6.591099823551647E-11-1.1854514604961017E-12i
-0.6                      0                        0.3                      -3.541025309237233E-11-2.9887068437360126E-13i
-0.3                      0                        0.6                      -1.0249368248088363E-10-2.0719905032464143E-12i
-0.75                     0                        0.15                     -9.037861240746731E-12+4.625426683738742E-13i
-0.15                     0                        0.75                     -1.4976845972427018E-10-3.1343605536623243E-12i
0.45                      0                        -0.45                    9.130637829132908E-11+5.519183742423804E-12i
0.6                       0                        -0.3                     6.19351473029831E-11+3.669337731537043E-12i
0.3                       0                        -0.6                     1.2687120310954743E-10+7.840470075421897E-12i
0.75                      0                        -0.15                    3.612296755525175E-11+1.8837077449707727E-12i
0.15                      0                        -0.75                    1.7142829757355022E-10+1.0486189856333897E-11i
-0.45                     0                        -0.45                    8.564436739556349E-11+6.022919547708807E-12i
-0.6                      0                        -0.3                     5.6655241668227545E-11+3.997202614970656E-12i
-0.3                      0                        -0.6                     1.2240597450386405E-10+8.32448506154349E-12i
-0.75                     0                        -0.15                    3.4442717437214976E-11+2.5010036192979217E-12i
-0.15                     0                        -0.75                    1.6954914129189957E-10+1.0696140340527027E-11i
0                         0.45                     0.45                     -6.46932216385464E-11-4.734389182808997E-12i
0                         0.6                      0.3                      -3.47072053322377E-11-3.2490451222605315E-12i
0                         0.3                      0.6                      -1.0165438233743166E-10-5.0623312440422185E-12i
0                         0.75                     0.15                     -9.431267636224402E-12-1.6771127867853322E-12i
0                         0.15                     0.75                     -1.490641947611911E-10-4.5807217118910316E-12i
0                         -0.45                    0.45                     -6.499040251837978E-11+1.871823239486067E-13i
0                         -0.6                     0.3                      -3.380954296357157E-11+8.31823251773347E-13i
0                         -0.3                     0.6                      -1.0282430968093863E-10-6.205016904641211E-13i
0                         -0.75                    0.15                     -7.641998614158163E-12+1.4549182743815434E-12i
0                         -0.15                    0.75                     -1.5022172271232384E-10-2.130967198183276E-12i
0                         0.45                     -0.45                    8.891343861441054E-11+4.7150850087025126E-12i
0                         0.6                      -0.3                     5.976387042031608E-11+2.633768978441239E-12i
0                         0.3                      -0.6                     1.2531759161320778E-10+7.349858669906882E-12i
0                         0.75                     -0.15                    3.4963226343974207E-11+9.752961753247366E-13i
0                         0.15                     -0.75                    1.7070123808758366E-10+1.0374136695346567E-11i
0                         -0.45                    -0.45                    9.0288117943058E-11+5.352462273559248E-12i
0                         -0.6                     -0.3                     6.098000388478247E-11+3.952421777223333E-12i
0                         -0.3                     -0.6                     1.2560845142713736E-10+7.319858518685195E-12i
0                         -0.75                    -0.15                    3.6465824184487595E-11+2.9478738070955616E-12i
0                         -0.15                    -0.75                    1.7143425667201324E-10+1.0184858828985473E-11i
0.9                       0                        0                        1.4978463043121656E-11+1.1268339091254935E-12i
-0.9                      0                        0                        1.457605175285551E-11+1.1249769709920417E-12i
0                         0.9                      0                        1.3361739181749286E-11-3.7705757701442367E-13i
0                         -0.9                     0                        1.5600147759978147E-11+2.1746580355302855E-12i
0                         0                        0.9                      -2.100647147190934E-10-4.7176052986779746E-12i
0                         0                        -0.9                     2.2843871887007604E-10+1.3779832340761388E-11i
0.6                       0.6                      0                        1.346122668082409E-11+3.1323001489818403E-13i
0.6                       0.45                     0.15                     -6.4649223561715485E-12-5.695159664224956E-13i
0.6                       0.45                     -0.15                    3.343992735496713E-11+1.6796812001628417E-12i
0.45                      0.6                      0.15                     -6.622984832707665E-12-1.1596415913937179E-12i
0.45                      0.6                      -0.15                    3.302047201980242E-11+1.2652524273671165E-12i
0.75                      0.45                     0                        1.4008897812223072E-11+8.125411942608279E-13i
0.45                      0.75                     0                        1.3409496435779483E-11-7.274854407347029E-14i
0.45                      0.45                     0.3                      -3.130387091014916E-11-2.58678949810997E-12i
0.45                      0.45                     -0.3                     5.7312700313631605E-11+2.929204206773876E-12i
0.6                       0.3                      0.3                      -3.0914069950326076E-11-1.51426005095015E-12i
0.75                      0.3                      0.15                     -5.983722109044052E-12+6.77140230455704E-14i