% Model:              Untitled.mph
% Version:            COMSOL 5.5.0.359
% Date:               Oct 7 2022, 18:50
% Dimension:          3
% Nodes:              891
% Expressions:        1
% Description:        Electric potential
% Length unit:        nm
% x                       y                        z                        V (V)
0                         0                        0                        -4.17622298546726E-12+7.800767880280045E-12i
0.15                      0.15                     0                        -4.7248918610601156E-12+7.880111439562982E-12i
-0.15                     0.15                     0                        -4.017535069610008E-12+7.1973201974470355E-12i
0.15                      -0.15                    0                        -4.834887718760628E-12+7.967665479035011E-12i
-0.15                     -0.15                    0                        -5.057910341817304E-12+8.308452467532405E-12i
0.15                      0                        0.15                     -2.5878725848835755E-11-1.9393743934716952E-10i
-0.15                     0                        0.15                     -2.548992726681014E-11-1.9404802506815555E-10i
0.15                      0                        -0.15                    1.7553598226526654E-11+2.0953368762238353E-10i
-0.15                     0                        -0.15                    1.7967588328918755E-11+2.0946162966009798E-10i
0                         0.15                     0.15                     -2.5729474439821827E-11-1.9375302868715687E-10i
0                         -0.15                    0.15                     -2.5730495413850887E-11-1.941499441182302E-10i
0                         0.15                     -0.15                    1.7681798926279394E-11+2.097122783081901E-10i
0                         -0.15                    -0.15                    1.7796540919515756E-11+2.09167314341656E-10i
0.3                       0                        0                        -5.337955022412231E-12+7.709836650665736E-12i
-0.3                      0                        0                        -4.799340290098021E-12+7.528517169942981E-12i
0                         0.3                      0                        -4.187797361844996E-12+6.595424517711708E-12i
0                         -0.3                     0                        -5.835036072945702E-12+8.482695631497443E-12i
0                         0                        0.3                      -3.5781278994693494E-11-4.1042885736114117E-10i
0                         0                        -0.3                     3.098728368154563E-11+4.26900920023249E-10i
0.3                       0.3                      0                        -5.352389177974065E-12+7.147371594872941E-12i
0.3                       0.15                     0.15                     -3.2224956646887225E-11-1.841708256079481E-10i
0.3                       0.15                     -0.15                    2.2634991444575987E-11+1.9936665185737903E-10i
0.15                      0.3                      0.15                     -3.220530875072002E-11-1.8380679486097555E-10i
0.15                      0.3                      -0.15                    2.3319790134203545E-11+1.986834462312324E-10i
0.45                      0.15                     0                        -6.119405787600266E-12+6.719670847803916E-12i
0.15                      0.45                     0                        -5.829239388340951E-12+7.448140644990777E-12i
0.15                      0.15                     0.3                      -4.311425456845801E-11-4.003366271377366E-10i
0.15                      0.15                     -0.3                     3.671266525757695E-11+4.1695143578585847E-10i
-0.3                      0.3                      0                        -5.127278794668436E-12+6.960131182894107E-12i
-0.3                      0.15                     0.15                     -3.2068664696651806E-11-1.8459936761013436E-10i
-0.3                      0.15                     -0.15                    2.28734444274692E-11+1.9968978801710187E-10i
-0.15                     0.3                      0.15                     -3.175716025418192E-11-1.8392641524315143E-10i
-0.15                     0.3                      -0.15                    2.3235581494348354E-11+1.9877503213473155E-10i
-0.45                     0.15                     0                        -5.761319793763195E-12+6.872797977461915E-12i
-0.15                     0.45                     0                        -5.5906069927435565E-12+6.9213213025686565E-12i
-0.15                     0.15                     0.3                      -4.25673937649687E-11-4.008405568597015E-10i
-0.15                     0.15                     -0.3                     3.702028695272881E-11+4.1754411601104484E-10i
0.3                       -0.3                     0                        -5.83015047776372E-12+6.415963293592476E-12i
0.3                       -0.15                    0.15                     -3.227511357531025E-11-1.8529607769331373E-10i
0.3                       -0.15                    -0.15                    2.2301587461655948E-11+2.0006436970466786E-10i
0.15                      -0.3                     0.15                     -3.266794726039882E-11-1.8484858524802777E-10i
0.15                      -0.3                     -0.15                    2.2594614805253645E-11+1.9946057889797498E-10i
0.45                      -0.15                    0                        -6.843812182954704E-12+6.9934428574451766E-12i
0.15                      -0.45                    0                        -6.644478802143976E-12+6.541933890296085E-12i
0.15                      -0.15                    0.3                      -4.419765238602639E-11-3.997362673008547E-10i
0.15                      -0.15                    -0.3                     3.725660575069216E-11+4.1692322422283325E-10i
-0.3                      -0.3                     0                        -5.854611928979016E-12+7.972617443842028E-12i
-0.3                      -0.15                    0.15                     -3.242428821200822E-11-1.846443607137507E-10i
-0.3                      -0.15                    -0.15                    2.2769218574758083E-11+1.9937958837306387E-10i
-0.15                     -0.3                     0.15                     -3.2387525850666917E-11-1.8473188386535412E-10i
-0.15                     -0.3                     -0.15                    2.223426069736007E-11+1.991017560162189E-10i
-0.45                     -0.15                    0                        -5.863899266343946E-12+6.883977283153069E-12i
-0.15                     -0.45                    0                        -6.564168884663316E-12+7.677597624477246E-12i
-0.15                     -0.15                    0.3                      -4.3170758540076454E-11-4.0073030923831447E-10i
-0.15                     -0.15                    -0.3                     3.665222032240944E-11+4.1758298673637394E-10i
0.3                       0                        0.3                      -5.03792473125193E-11-3.9153720747636207E-10i
0.45                      0                        0.15                     -3.959663167508419E-11-1.7636830695188727E-10i
0.15                      0                        0.45                     -3.8993671814497044E-11-6.364597493968039E-10i
-0.3                      0                        0.3                      -4.984152947799359E-11-3.9245960105432455E-10i
-0.45                     0                        0.15                     -3.89053334908569E-11-1.767850317408718E-10i
-0.15                     0                        0.45                     -3.890431689268291E-11-6.366052112363275E-10i
0.3                       0                        -0.3                     4.2734715642201914E-11+4.085104801260495E-10i
0.45                      0                        -0.15                    2.766160849192103E-11+1.9067081944483596E-10i
0.15                      0                        -0.45                    3.801817560043703E-11+6.538813059187668E-10i
-0.3                      0                        -0.3                     4.319527082924825E-11+4.0792016476098516E-10i
-0.45                     0                        -0.15                    2.7776321939663103E-11+1.9135586413682587E-10i
-0.15                     0                        -0.45                    3.779418431526725E-11+6.547961713602307E-10i
0                         0.3                      0.3                      -4.970418621340891E-11-3.9236591173167867E-10i
0                         0.45                     0.15                     -3.8463476438890904E-11-1.7626242718655436E-10i
0                         0.15                     0.45                     -3.749742541974613E-11-6.375333055757807E-10i
0                         -0.3                     0.3                      -5.105886251103105E-11-3.918226770574781E-10i
0                         -0.45                    0.15                     -3.959281109612435E-11-1.7681509128328147E-10i
0                         -0.15                    0.45                     -3.861185815081317E-11-6.372722491190544E-10i
0                         0.3                      -0.3                     4.257231315904907E-11+4.0906680282578595E-10i
0                         0.45                     -0.15                    2.8174065860701754E-11+1.9058639753171815E-10i
0                         0.15                     -0.45                    3.7776297819520105E-11+6.544312953268135E-10i
0                         -0.3                     -0.3                     4.298562123213768E-11+4.0795671820421485E-10i
0                         -0.45                    -0.15                    2.781373925186514E-11+1.89565203811684E-10i
0                         -0.15                    -0.45                    3.7378401483037326E-11+6.551161886873669E-10i
0.6                       0                        0                        -7.636749323618011E-12+6.550425755192789E-12i
-0.6                      0                        0                        -6.817967776884293E-12+6.235498983118481E-12i
0                         0.6                      0                        -6.142436188578091E-12+5.531695627079957E-12i
0                         -0.6                     0                        -7.877440492408361E-12+6.5831717719934016E-12i
0                         0                        0.6                      -3.063585979658928E-12-9.053075063166279E-10i
0                         0                        -0.6                     1.1580801226346443E-11+9.24690842529024E-10i
0.45                      0.45                     0                        -7.129210140732838E-12+6.8792611497186485E-12i
0.45                      0.3                      0.15                     -4.329732753527099E-11-1.6184991062470756E-10i
0.45                      0.3                      -0.15                    3.115296353293241E-11+1.7613153261144922E-10i
0.3                       0.45                     0.15                     -4.379132706854803E-11-1.6203306197442513E-10i
0.3                       0.45                     -0.15                    3.1450526125173047E-11+1.7615222151448485E-10i
0.6                       0.3                      0                        -7.84343185480303E-12+6.4880619220800694E-12i
0.3                       0.6                      0                        -7.0470644497480534E-12+5.642231247046655E-12i
0.3                       0.3                      0.3                      -6.21690700225331E-11-3.6819405506332473E-10i
0.3                       0.3                      -0.3                     5.37446692189789E-11+3.839081488803772E-10i
0.45                      0.15                     0.3                      -7.02816829498489E-11-3.632018461873175E-10i
0.6                       0.15                     0.15                     -5.0549450033649476E-11-1.5617843714189779E-10i
0.3                       0.15                     0.45                     -6.227362881666245E-11-6.074525466819237E-10i
0.45                      0.15                     -0.3                     5.905440942135823E-11+3.788398866417683E-10i
0.6                       0.15                     -0.15                    3.574364914517336E-11+1.7018297673200843E-10i
0.3                       0.15                     -0.45                    5.959508058389605E-11+6.241893502014084E-10i
0.15                      0.45                     0.3                      -6.882709245381571E-11-3.6303924061517794E-10i
0.15                      0.6                      0.15                     -4.938712918827182E-11-1.5657285427260948E-10i
0.15                      0.3                      0.45                     -6.156966153391482E-11-6.071534508127959E-10i
0.15                      0.45                     -0.3                     5.995350573357734E-11+3.7744529934916786E-10i
0.15                      0.6                      -0.15                    3.6877208422757603E-11+1.704225334710241E-10i
0.15                      0.3                      -0.45                    5.85390056420404E-11+6.24788159010636E-10i
0.75                      0.15                     0                        -9.161200390895493E-12+5.382591110728565E-12i
0.15                      0.75                     0                        -7.981513755112354E-12+4.415871181217243E-12i
0.15                      0.15                     0.6                      -2.2721498546525096E-11-8.864498827161093E-10i
0.15                      0.15                     -0.6                     2.715535245297642E-11+9.054994646411503E-10i
-0.45                     0.45                     0                        -6.442372684641215E-12+6.894516036074706E-12i
-0.45                     0.3                      0.15                     -4.311135677354834E-11-1.619706071363584E-10i
-0.45                     0.3                      -0.15                    3.1579533978912205E-11+1.7547424965417597E-10i
-0.3                      0.45                     0.15                     -4.278249589383961E-11-1.6233614817570092E-10i
-0.3                      0.45                     -0.15                    3.1848602789132346E-11+1.7635233935332521E-10i
-0.6                      0.3                      0                        -7.132867312008249E-12+5.799590863613335E-12i
-0.3                      0.6                      0                        -6.877556902058252E-12+6.420508116892209E-12i
-0.3                      0.3                      0.3                      -6.292798469542268E-11-3.678715979711715E-10i
-0.3                      0.3                      -0.3                     5.3791187431619415E-11+3.845976187212653E-10i
-0.45                     0.15                     0.3                      -6.92266830663975E-11-3.6296795275217564E-10i
-0.6                      0.15                     0.15                     -4.991652903148961E-11-1.570054092887452E-10i
-0.3                      0.15                     0.45                     -6.150882762040198E-11-6.069282142763846E-10i
-0.45                     0.15                     -0.3                     6.060497915607946E-11+3.774541439222864E-10i
-0.6                      0.15                     -0.15                    3.673752067462091E-11+1.70108706219449E-10i
-0.3                      0.15                     -0.45                    5.926480307077808E-11+6.251785386640297E-10i
-0.15                     0.45                     0.3                      -6.910549108711035E-11-3.639196497902595E-10i
-0.15                     0.6                      0.15                     -5.011223019199665E-11-1.5802542738183295E-10i
-0.15                     0.3                      0.45                     -6.14101881844587E-11-6.076363079238122E-10i
-0.15                     0.45                     -0.3                     6.093755542467705E-11+3.7788697246004897E-10i
-0.15                     0.6                      -0.15                    3.68702101450317E-11+1.7023108448711298E-10i
-0.15                     0.3                      -0.45                    5.933559216359035E-11+6.246391347417925E-10i
-0.75                     0.15                     0                        -7.993168040744264E-12+4.9894927034395195E-12i
-0.15                     0.75                     0                        -7.515375275347411E-12+4.579064866798426E-12i
-0.15                     0.15                     0.6                      -2.1689297439393174E-11-8.865639778316379E-10i
-0.15                     0.15                     -0.6                     2.7634109031657158E-11+9.061296676591578E-10i
0.45                      -0.45                    0                        -7.724877093306579E-12+7.466603291478204E-12i
0.45                      -0.3                     0.15                     -4.414511061901517E-11-1.6119284143173096E-10i
0.45                      -0.3                     -0.15                    3.076082990975301E-11+1.761504496483938E-10i
0.3                       -0.45                    0.15                     -4.4551245215349615E-11-1.6126329572915236E-10i
0.3                       -0.45                    -0.15                    3.10939138870935E-11+1.7501376173807904E-10i
0.6                       -0.3                     0                        -8.207510252018879E-12+5.9630451478290045E-12i
0.3                       -0.6                     0                        -8.238032875521983E-12+7.108062003904581E-12i
0.3                       -0.3                     0.3                      -6.437549288998335E-11-3.669681383523528E-10i
0.3                       -0.3                     -0.3                     5.374511872185062E-11+3.8395423526991436E-10i
0.45                      -0.15                    0.3                      -7.013575293484218E-11-3.63299632194214E-10i
0.6                       -0.15                    0.15                     -5.133626952937146E-11-1.5803694953641664E-10i
0.3                       -0.15                    0.45                     -6.257402795966977E-11-6.081028289789476E-10i
0.45                      -0.15                    -0.3                     5.984423751226765E-11+3.7704164246195326E-10i
0.6                       -0.15                    -0.15                    3.5624330760932616E-11+1.7233782244706092E-10i
0.3                       -0.15                    -0.45                    5.842872698781547E-11+6.247080909823997E-10i
0.15                      -0.45                    0.3                      -7.097617551185079E-11-3.6149361726615847E-10i
0.15                      -0.6                     0.15                     -5.092799308190024E-11-1.567652664545742E-10i
0.15                      -0.3                     0.45                     -6.262517535268379E-11-6.071909825945036E-10i
0.15                      -0.45                    -0.3                     5.97908651579399E-11+3.785842589039327E-10i
0.15                      -0.6                     -0.15                    3.568324680178397E-11+1.702917803047275E-10i
0.15                      -0.3                     -0.45                    5.925544105291465E-11+6.238603008378391E-10i
0.75                      -0.15                    0                        -9.207473296649418E-12+6.0752050835126234E-12i
0.15                      -0.75                    0                        -9.598339626083976E-12+5.18317225389348E-12i
0.15                      -0.15                    0.6                      -2.2870555546693934E-11-8.852489000158735E-10i
0.15                      -0.15                    -0.6                     2.7592238638208023E-11+9.053818525751984E-10i
-0.45                     -0.45                    0                        -7.236266090135302E-12+5.595549257397646E-12i
-0.45                     -0.3                     0.15                     -4.401588552840496E-11-1.6098858107749111E-10i
-0.45                     -0.3                     -0.15                    3.152420353613751E-11+1.7515931385165498E-10i
-0.3                      -0.45                    0.15                     -4.4155513970913617E-11-1.61325233951494E-10i
-0.3                      -0.45                    -0.15                    3.111673554781638E-11+1.758500512526772E-10i
-0.6                      -0.3                     0                        -7.2228522298150835E-12+7.517464757055688E-12i
-0.3                      -0.6                     0                        -8.251511306891034E-12+6.433201895936149E-12i
-0.3                      -0.3                     0.3                      -6.32324236130511E-11-3.675678492965261E-10i
-0.3                      -0.3                     -0.3                     5.4483042368777034E-11+3.836363371803385E-10i
-0.45                     -0.15                    0.3                      -6.970193735303901E-11-3.6298963782557714E-10i
-0.6                      -0.15                    0.15                     -5.0112975560782114E-11-1.574333113745505E-10i
-0.3                      -0.15                    0.45                     -6.32487666027672E-11-6.072200244559336E-10i
-0.45                     -0.15                    -0.3                     5.993633522876261E-11+3.793959166452786E-10i
-0.6                      -0.15                    -0.15                    3.6591612332271653E-11+1.7000518635124026E-10i
-0.3                      -0.15                    -0.45                    5.966830156356748E-11+6.246675615105418E-10i
-0.15                     -0.45                    0.3                      -7.098900679124329E-11-3.6257235841483594E-10i
-0.15                     -0.6                     0.15                     -5.1442344916317707E-11-1.573676801733319E-10i
-0.15                     -0.3                     0.45                     -6.326669203783168E-11-6.069032685522372E-10i
-0.15                     -0.45                    -0.3                     6.026694614120332E-11+3.7689870395214506E-10i
-0.15                     -0.6                     -0.15                    3.656386774740421E-11+1.7027914365676722E-10i
-0.15                     -0.3                     -0.45                    5.974017309829981E-11+6.243722741041021E-10i
-0.75                     -0.15                    0                        -7.975529911047484E-12+7.0644487661253775E-12i
-0.15                     -0.75                    0                        -9.611397542544948E-12+5.835443961780913E-12i
-0.15                     -0.15                    0.6                      -2.3837535365745586E-11-8.853650886992817E-10i
-0.15                     -0.15                    -0.6                     2.9081372182298456E-11+9.056279284968608E-10i
0.45                      0                        0.45                     -8.637310901068539E-11-5.851620138976277E-10i
0.6                       0                        0.3                      -9.048643697442133E-11-3.431644513579077E-10i
0.3                       0                        0.6                      -4.266516588072439E-11-8.704312225653286E-10i
0.75                      0                        0.15                     -6.324482745741169E-11-1.458150242940766E-10i
0.15                      0                        0.75                     5.329376655750445E-11-1.1933206383972072E-9i
-0.45                     0                        0.45                     -8.62135210505391E-11-5.857428244185437E-10i
-0.6                      0                        0.3                      -8.900061446417963E-11-3.43157488106628E-10i
-0.3                      0                        0.6                      -4.2628406814865066E-11-8.711436136449522E-10i
-0.75                     0                        0.15                     -6.168377844838435E-11-1.4597356797140308E-10i
-0.15                     0                        0.75                     5.443238465898462E-11-1.1934978550541254E-9i
0.45                      0                        -0.45                    8.012093458183216E-11+6.023497271320045E-10i
0.6                       0                        -0.3                     7.657447446730319E-11+3.56401958648823E-10i
0.3                       0                        -0.6                     4.365609197128159E-11+8.917804741975287E-10i
0.75                      0                        -0.15                    4.450233660390858E-11+1.575981032747002E-10i
0.15                      0                        -0.75                    -3.138716481358305E-11+1.2143487877055404E-9i
-0.45                     0                        -0.45                    8.03833337984178E-11+6.01262230913808E-10i
-0.6                      0                        -0.3                     7.717136454565012E-11+3.5729836338389226E-10i
-0.3                      0                        -0.6                     4.480483220732743E-11+8.925877988643915E-10i
-0.75                     0                        -0.15                    4.5743736425437394E-11+1.5586173213402578E-10i
-0.15                     0                        -0.75                    -3.302829855616333E-11+1.217755195632799E-9i
0                         0.45                     0.45                     -8.436014365172448E-11-5.857548815002256E-10i
0                         0.6                      0.3                      -8.818884898356768E-11-3.4397585483799645E-10i
0                         0.3                      0.6                      -4.129519208076024E-11-8.699215910399865E-10i
0                         0.75                     0.15                     -6.086867458686963E-11-1.459498171289771E-10i
0                         0.15                     0.75                     5.559825879203616E-11-1.1951412988430238E-9i
0                         -0.45                    0.45                     -8.677979638169167E-11-5.861108440742131E-10i
0                         -0.6                     0.3                      -9.084207616236392E-11-3.423383330483641E-10i
0                         -0.3                     0.6                      -4.479074533529093E-11-8.693208188197521E-10i
0                         -0.75                    0.15                     -6.382171255049539E-11-1.4543979965656806E-10i
0                         -0.15                    0.75                     4.990138944342573E-11-1.1923743844572892E-9i
0                         0.45                     -0.45                    7.954806033358945E-11+6.01674389363332E-10i
0                         0.6                      -0.3                     7.789991169465506E-11+3.5610770477022503E-10i
0                         0.3                      -0.6                     4.475587569113002E-11+8.895663557666319E-10i
0                         0.75                     -0.15                    4.614664849967453E-11+1.56531365261499E-10i
0                         0.15                     -0.75                    -3.1561724621301044E-11+1.2152639886902718E-9i
0                         -0.45                    -0.45                    7.99682356715458E-11+6.019330723295496E-10i
0                         -0.6                     -0.3                     7.695378247914476E-11+3.5685007786953037E-10i
0                         -0.3                     -0.6                     4.740527518687845E-11+8.885646118371664E-10i
0                         -0.75                    -0.15                    4.4212750545030016E-11+1.5730974803235706E-10i
0                         -0.15                    -0.75                    -3.275999208348254E-11+1.214342992591236E-9i
0.9                       0                        0                        -1.1688718552326997E-11+2.252169637183485E-12i
-0.9                      0                        0                        -9.138852724319603E-12+3.241506804661E-12i
0                         0.9                      0                        -9.183734297313396E-12+3.2564094400570664E-12i
0                         -0.9                     0                        -1.228145119753574E-11+1.988872552150186E-12i
0                         0                        0.9                      2.0384968698988025E-10-1.5492333852064193E-9i
0                         0                        -0.9                     -1.6737711494421718E-10+1.5528655217951829E-9i
0.6                       0.6                      0                        -8.530410767454073E-12+7.2503241451163036E-12i
0.6                       0.45                     0.15                     -5.5831494287123534E-11-1.2202740266186674E-10i
0.6                       0.45                     -0.15                    4.030997093407639E-11+1.357326657872666E-10i
0.45                      0.6                      0.15                     -5.5510432841793735E-11-1.2290831100222574E-10i
0.45                      0.6                      -0.15                    4.0052398545171886E-11+1.363744749448864E-10i
0.75                      0.45                     0                        -9.10397072113937E-12+7.289177665658742E-12i
0.45                      0.75                     0                        -8.714208751227946E-12+5.641611828260462E-12i
0.45                      0.45                     0.3                      -8.790766744515323E-11-3.0747862164525687E-10i
0.45                      0.45                     -0.3                     7.577436166398737E-11+3.2251236701552813E-10i
0.6                       0.3                      0.3                      -9.532957135376177E-11-3.0478588090398804E-10i
0.75                      0.3                      0.15                     -6.22023535659498E-11-1.2289738553183846E-10i
0.45                      0.3                      0.45                     -1.0243178804422736E-10-5.400764333790632E-10i