% Model:              Untitled.mph
% Version:            COMSOL 5.5.0.359
% Date:               Oct 10 2022, 12:35
% Dimension:          3
% Nodes:              665
% Expressions:        1
% Description:        Electric potential
% Length unit:        nm
% x                       y                        z                        V (V)
0                         0                        0                        1.0415484759237983E-13+1.0234185222038574E-13i
0.3                       0.3                      0                        7.894947260930937E-14+1.4778373952384816E-13i
-0.3                      0.3                      0                        6.814677744925132E-14+1.3728203370472244E-13i
0.3                       -0.3                     0                        6.418492937773187E-14+1.3892575777206793E-13i
-0.3                      -0.3                     0                        1.3314221131258187E-14+1.5226139839173794E-13i
0.3                       0                        0.3                      6.23414274114548E-11-1.6425223814408012E-10i
-0.3                      0                        0.3                      6.242127018922903E-11-1.6436240590998917E-10i
0.3                       0                        -0.3                     -6.241315891161009E-11+1.647667537034464E-10i
-0.3                      0                        -0.3                     -6.235442760414188E-11+1.647147050143899E-10i
0                         0.3                      0.3                      5.571420616482684E-11-1.5744697582267204E-10i
0                         -0.3                     0.3                      5.5823930042453767E-11-1.5759196447226377E-10i
0                         0.3                      -0.3                     -5.580890161236956E-11+1.5800250427720417E-10i
0                         -0.3                     -0.3                     -5.575301721724227E-11+1.5791559156819905E-10i
0.6                       0                        0                        -1.4200947856767584E-14+2.612402937319246E-13i
-0.6                      0                        0                        2.6310790865691855E-14+1.4942593934273886E-13i
0                         0.6                      0                        6.365641385175822E-14+1.3218068566864347E-13i
0                         -0.6                     0                        1.2338638204932817E-14+1.4876508784995674E-13i
0                         0                        0.6                      1.2193447000941406E-10-3.262972160507628E-10i
0                         0                        -0.6                     -1.218740045313488E-10+3.2668112676925744E-10i
0.6                       0.6                      0                        -3.8816659672593796E-14+2.5889471197329013E-13i
0.6                       0.3                      0.3                      6.585733086495243E-11-1.6854259516926302E-10i
0.6                       0.3                      -0.3                     -6.584048671206111E-11+1.690380910000418E-10i
0.3                       0.6                      0.3                      4.7071087845264E-11-1.4835931708164322E-10i
0.3                       0.6                      -0.3                     -4.678014684927024E-11+1.4843873789955113E-10i
0.9                       0.3                      0                        2.7888526652160794E-14+2.2673387668419115E-13i
0.3                       0.9                      0                        -7.677818173782367E-14+3.4440491147489586E-13i
0.3                       0.3                      0.6                      1.194906837884812E-10-3.232321259611706E-10i
0.3                       0.3                      -0.6                     -1.1940476870867586E-10+3.2370521975001885E-10i
-0.6                      0.6                      0                        9.377947551086999E-15+1.9912997256838987E-13i
-0.6                      0.3                      0.3                      6.578914358488663E-11-1.685551168635449E-10i
-0.6                      0.3                      -0.3                     -6.584044452667211E-11+1.689919001571844E-10i
-0.3                      0.6                      0.3                      4.6852413172109146E-11-1.4812177037365904E-10i
-0.3                      0.6                      -0.3                     -4.6952983893765944E-11+1.4867073043697595E-10i
-0.9                      0.3                      0                        6.986055742369698E-15+1.8178519866270364E-13i
-0.3                      0.9                      0                        7.323227266419286E-14+6.948165482159395E-14i
-0.3                      0.3                      0.6                      1.1950468536640636E-10-3.2327956240078187E-10i
-0.3                      0.3                      -0.6                     -1.1952510121040992E-10+3.237957300990865E-10i
0.6                       -0.6                     0                        -2.383132207233424E-14+2.3773106748897734E-13i
0.6                       -0.3                     0.3                      6.585105938668583E-11-1.685786778156669E-10i
0.6                       -0.3                     -0.3                     -6.578906984826537E-11+1.689419766879104E-10i
0.3                       -0.6                     0.3                      4.693376531282448E-11-1.4823644909416927E-10i
0.3                       -0.6                     -0.3                     -4.6971972108979477E-11+1.4867941746624572E-10i
0.9                       -0.3                     0                        -3.984078636789772E-14+2.5300271506583326E-13i
0.3                       -0.9                     0                        -7.085540531801962E-14+2.7236304635600374E-13i
0.3                       -0.3                     0.6                      1.1948657678374963E-10-3.232268660126098E-10i
0.3                       -0.3                     -0.6                     -1.1936002907329373E-10+3.2359949628440136E-10i
-0.6                      -0.6                     0                        -6.35882598435292E-14+1.5811445560494166E-13i
-0.6                      -0.3                     0.3                      6.584969903626512E-11-1.6861760975337593E-10i
-0.6                      -0.3                     -0.3                     -6.592674115139474E-11+1.69006247080757E-10i
-0.3                      -0.6                     0.3                      4.687829149571613E-11-1.4823555837759513E-10i
-0.3                      -0.6                     -0.3                     -4.696392774657612E-11+1.4860250690148286E-10i
-0.9                      -0.3                     0                        -1.013074071809304E-13+2.156649821600814E-13i
-0.3                      -0.9                     0                        5.267666717913679E-14-3.6936500176864424E-14i
-0.3                      -0.3                     0.6                      1.1931108458210202E-10-3.231208353790596E-10i
-0.3                      -0.3                     -0.6                     -1.195468684251147E-10+3.23760838953271E-10i
0.6                       0                        0.6                      1.4524293893983562E-10-3.47904450575624E-10i
0.9                       0                        0.3                      7.917513704202847E-11-1.8427145526850794E-10i
0.3                       0                        0.9                      2.0024857823045154E-10-5.057827960076961E-10i
-0.6                      0                        0.6                      1.449689946533689E-10-3.4783256147346743E-10i
-0.9                      0                        0.3                      7.910014362600883E-11-1.8428543439225487E-10i
-0.3                      0                        0.9                      1.999074639560217E-10-5.055965613529879E-10i
0.6                       0                        -0.6                     -1.4495460133822166E-10+3.482844616372946E-10i
0.9                       0                        -0.3                     -7.90151753764234E-11+1.8461035282146094E-10i
0.3                       0                        -0.9                     -1.999247910950544E-10+5.060503125578745E-10i
-0.6                      0                        -0.6                     -1.448879836341881E-10+3.481961844776157E-10i
-0.9                      0                        -0.3                     -7.914287454328843E-11+1.846910943005784E-10i
-0.3                      0                        -0.9                     -2.0013124070972386E-10+5.062074869903646E-10i
0                         0.6                      0.6                      8.975479826059611E-11-2.93043611554323E-10i
0                         0.9                      0.3                      2.6784277945395247E-11-1.250880287668411E-10i
0                         0.3                      0.9                      1.7472964338683994E-10-4.836423792865949E-10i
0                         -0.6                     0.6                      8.973695821710305E-11-2.9306748746801047E-10i
0                         -0.9                     0.3                      2.6729089104068464E-11-1.2511521431802692E-10i
0                         -0.3                     0.9                      1.7482655436617287E-10-4.837156589575346E-10i
0                         0.6                      -0.6                     -8.982580145081305E-11+2.935497511396135E-10i
0                         0.9                      -0.3                     -2.6800222547864812E-11+1.255653219881881E-10i
0                         0.3                      -0.9                     -1.7485509075698033E-10+4.841905144891415E-10i
0                         -0.6                     -0.6                     -8.974512695974801E-11+2.9342520464343783E-10i
0                         -0.9                     -0.3                     -2.6897551273271746E-11+1.25605195909506E-10i
0                         -0.3                     -0.9                     -1.7473899668603956E-10+4.84039811510309E-10i
1.2                       0                        0                        -1.2448249981519917E-14+8.606472065761404E-14i
-1.2                      0                        0                        -5.6369413863373944E-14+1.935599903665995E-13i
0                         1.2                      0                        -4.185728805959552E-14+1.714437889409207E-13i
0                         -1.2                     0                        -2.842873549052413E-14+3.129798873501451E-13i
0                         0                        1.2                      2.691985332860713E-10-6.867194473400892E-10i
0                         0                        -1.2                     -2.6936901906377863E-10+6.873816235344664E-10i
0.9                       0.9                      0                        -8.010737518809074E-16+2.871501393331723E-13i
0.9                       0.6                      0.3                      6.529284569085946E-11-1.7260613554850676E-10i
0.9                       0.6                      -0.3                     -6.574096472358583E-11+1.7343453653042592E-10i
0.6                       0.9                      0.3                      3.5868380411244063E-11-1.3719612580185923E-10i
0.6                       0.9                      -0.3                     -3.590712177265798E-11+1.3764687155370642E-10i
1.2                       0.6                      0                        1.5689508075635276E-13+2.0152385713130272E-13i
0.6                       1.2                      0                        -7.48961607171876E-14+2.5902265871880653E-13i
0.6                       0.6                      0.6                      1.1193084722071665E-10-3.164282528208572E-10i
0.6                       0.6                      -0.6                     -1.1203715393518892E-10+3.17043442034783E-10i
0.9                       0.3                      0.6                      1.6020710742006514E-10-3.670563489784757E-10i
1.2                       0.3                      0.3                      1.130637162577154E-10-1.637112367859246E-10i
0.6                       0.3                      0.9                      2.153508407399447E-10-5.157304089228325E-10i
0.9                       0.3                      -0.6                     -1.6044626020145685E-10+3.677378374353959E-10i
1.2                       0.3                      -0.3                     -1.1296078767120473E-10+1.6400923611465386E-10i
0.6                       0.3                      -0.9                     -2.1494517257470743E-10+5.161986190332427E-10i
0.3                       0.9                      0.6                      5.851649571437579E-11-2.5881642635836606E-10i
0.3                       1.2                      0.3                      5.3946407334620946E-12-9.765497317424142E-11i
0.3                       0.6                      0.9                      1.4434222077253634E-10-4.5164490864629174E-10i
0.3                       0.9                      -0.6                     -5.854225717423601E-11+2.5926934131189876E-10i
0.3                       1.2                      -0.3                     -5.523909831823299E-12+9.820232686665116E-11i
0.3                       0.6                      -0.9                     -1.4443795351144874E-10+4.521584682876091E-10i
1.5                       0.3                      0                        -1.4929283347744985E-14+4.5238481596500676E-14i
0.3                       1.5                      0                        1.77271039866744E-13-5.801027038813521E-13i
0.3                       0.3                      1.2                      2.534906813865794E-10-6.676412915477885E-10i
0.3                       0.3                      -1.2                     -2.5339128072129406E-10+6.682072368823928E-10i
-0.9                      0.9                      0                        -1.0091378996637984E-14+2.4866129493956964E-13i
-0.9                      0.6                      0.3                      6.528918119955841E-11-1.72839255295769E-10i
-0.9                      0.6                      -0.3                     -6.530819308005343E-11+1.731573130440405E-10i
-0.6                      0.9                      0.3                      3.590471901002438E-11-1.3729005193049408E-10i
-0.6                      0.9                      -0.3                     -3.592244869649074E-11+1.3780207362420707E-10i
-1.2                      0.6                      0                        -9.026679631947799E-14+1.9263975578701548E-13i
-0.6                      1.2                      0                        2.0595677640948814E-14+1.7014213474049836E-13i
-0.6                      0.6                      0.6                      1.1192961514343754E-10-3.164495699973826E-10i
-0.6                      0.6                      -0.6                     -1.1175004020384683E-10+3.1673956914024634E-10i
-0.9                      0.3                      0.6                      1.6014787421431638E-10-3.672895087426304E-10i
-1.2                      0.3                      0.3                      1.1293112510269235E-10-1.6372599273046528E-10i
-0.6                      0.3                      0.9                      2.1527705304742594E-10-5.15866932451637E-10i
-0.9                      0.3                      -0.6                     -1.6045278282374524E-10+3.67765316656757E-10i
-1.2                      0.3                      -0.3                     -1.130794300859669E-10+1.6395967028037799E-10i
-0.6                      0.3                      -0.9                     -2.1490896808652558E-10+5.161052993084912E-10i
-0.3                      0.9                      0.6                      5.84623765439656E-11-2.587898455560349E-10i
-0.3                      1.2                      0.3                      5.410979288152284E-12-9.756668713881077E-11i
-0.3                      0.6                      0.9                      1.4437926273191776E-10-4.516913593840429E-10i
-0.3                      0.9                      -0.6                     -5.84988507357776E-11+2.5923752123272854E-10i
-0.3                      1.2                      -0.3                     -5.408988185713483E-12+9.80031763005456E-11i
-0.3                      0.6                      -0.9                     -1.443102385892355E-10+4.521103350618395E-10i
-1.5                      0.3                      0                        -5.184978114529511E-14+5.4952088305908456E-14i
-0.3                      1.5                      0                        2.7242192326094338E-14-1.176376342057055E-13i
-0.3                      0.3                      1.2                      2.535665635881492E-10-6.678782971610312E-10i
-0.3                      0.3                      -1.2                     -2.539594715014205E-10+6.684167523913489E-10i
0.9                       -0.9                     0                        -1.015219515498118E-13+2.9574866724753634E-13i
0.9                       -0.6                     0.3                      6.531909857015071E-11-1.7283175652476392E-10i
0.9                       -0.6                     -0.3                     -6.531889742622791E-11+1.7318366586373125E-10i
0.6                       -0.9                     0.3                      3.5855902594168066E-11-1.372575085750234E-10i
0.6                       -0.9                     -0.3                     -3.595196902231973E-11+1.3781934940502932E-10i
1.2                       -0.6                     0                        7.937099312256923E-14+4.815222338386965E-14i
0.6                       -1.2                     0                        -1.0114588177199327E-13+2.1606829701160944E-13i
0.6                       -0.6                     0.6                      1.1195745358462586E-10-3.1650678877678873E-10i
0.6                       -0.6                     -0.6                     -1.1186613957070953E-10+3.1697330264721553E-10i
0.9                       -0.3                     0.6                      1.6028471733240125E-10-3.671305441635573E-10i
1.2                       -0.3                     0.3                      1.1304411185314167E-10-1.6363067300864078E-10i
0.6                       -0.3                     0.9                      2.154325063287119E-10-5.158137070945783E-10i
0.9                       -0.3                     -0.6                     -1.6038609515654706E-10+3.676810508206362E-10i
1.2                       -0.3                     -0.3                     -1.1327394031344748E-10+1.6376167780193957E-10i
0.6                       -0.3                     -0.9                     -2.150498838802802E-10+5.161736263353509E-10i
0.3                       -0.9                     0.6                      5.843100304465311E-11-2.5878917836516056E-10i
0.3                       -1.2                     0.3                      5.409887903437515E-12-9.763588621236386E-11i
0.3                       -0.6                     0.9                      1.4450362464277325E-10-4.517428324970925E-10i
0.3                       -0.9                     -0.6                     -5.850461321466089E-11+2.592093120848565E-10i
0.3                       -1.2                     -0.3                     -5.510701976326339E-12+9.793645154308555E-11i
0.3                       -0.6                     -0.9                     -1.4438146649522908E-10+4.521148636762922E-10i
1.5                       -0.3                     0                        -1.0025525794070599E-13-2.4919900314029145E-14i
0.3                       -1.5                     0                        -4.722645633680532E-14-2.3612900815919026E-13i
0.3                       -0.3                     1.2                      2.534332125279745E-10-6.676311740810079E-10i
0.3                       -0.3                     -1.2                     -2.534022360237147E-10+6.681514351418172E-10i
-0.9                      -0.9                     0                        -5.150845164704379E-14+1.0675802999171866E-13i
-0.9                      -0.6                     0.3                      6.528073055872818E-11-1.7276180899968664E-10i
-0.9                      -0.6                     -0.3                     -6.55294549638766E-11+1.731922370539668E-10i
-0.6                      -0.9                     0.3                      3.584755772084412E-11-1.374081399203329E-10i
-0.6                      -0.9                     -0.3                     -3.6024249220790544E-11+1.376667912456426E-10i
-1.2                      -0.6                     0                        -1.5371123234007012E-14+1.6084078327658654E-13i
-0.6                      -1.2                     0                        1.1911621090714957E-14+7.592769657157158E-14i
-0.6                      -0.6                     0.6                      1.1189506003975258E-10-3.165404097850001E-10i
-0.6                      -0.6                     -0.6                     -1.1207848983068813E-10+3.1694022837891804E-10i
-0.9                      -0.3                     0.6                      1.6037641910529208E-10-3.67353055312772E-10i
-1.2                      -0.3                     0.3                      1.1281099933699551E-10-1.6379776838617475E-10i
-0.6                      -0.3                     0.9                      2.153959385138455E-10-5.158107490652635E-10i
-0.9                      -0.3                     -0.6                     -1.6045001700304049E-10+3.677291637077091E-10i
-1.2                      -0.3                     -0.3                     -1.1319819393018112E-10+1.6396039482236611E-10i
-0.6                      -0.3                     -0.9                     -2.1553029896296359E-10+5.165259636974975E-10i
-0.3                      -0.9                     0.6                      5.839702946929623E-11-2.588317873257988E-10i
-0.3                      -1.2                     0.3                      5.403867383171371E-12-9.77277029880617E-11i
-0.3                      -0.6                     0.9                      1.443708113870771E-10-4.5171704911689604E-10i
-0.3                      -0.9                     -0.6                     -5.85148371949459E-11+2.591604221026014E-10i
-0.3                      -1.2                     -0.3                     -5.50887241744489E-12+9.79012857634765E-11i
-0.3                      -0.6                     -0.9                     -1.443275618816362E-10+4.5206568672401643E-10i
-1.5                      -0.3                     0                        -8.225629127377605E-14+1.244409731902217E-13i
-0.3                      -1.5                     0                        -4.9072844991567025E-14-3.461910853310261E-13i
-0.3                      -0.3                     1.2                      2.538252727045845E-10-6.678908895472155E-10i
-0.3                      -0.3                     -1.2                     -2.538337872923827E-10+6.68076159744162E-10i
0.9                       0                        0.9                      2.7702077877175885E-10-5.694788524242279E-10i
1.2                       0                        0.6                      2.4224916100903637E-10-3.328629170232721E-10i
0.6                       0                        1.2                      3.3866492024623455E-10-7.250657104556862E-10i
1.5                       0                        0.3                      1.7190778685100557E-10-1.1725194595504615E-10i
0.3                       0                        1.5                      4.522238978015195E-10-9.578492659630685E-10i
-0.9                      0                        0.9                      2.766902310434169E-10-5.693453197388902E-10i
-1.2                      0                        0.6                      2.41828752094784E-10-3.3317912764411003E-10i
-0.6                      0                        1.2                      3.388777434356195E-10-7.254706185937989E-10i
-1.5                      0                        0.3                      1.716288932557642E-10-1.173212843060103E-10i
-0.3                      0                        1.5                      4.5007932627887427E-10-9.576324042476685E-10i
0.9                       0                        -0.9                     -2.7655594583981885E-10+5.702241220016467E-10i
1.2                       0                        -0.6                     -2.427432644289757E-10+3.3323354693251086E-10i
0.6                       0                        -1.2                     -3.3831436855428477E-10+7.258119212139732E-10i
1.5                       0                        -0.3                     -1.7160162375084616E-10+1.1751308721251474E-10i
0.3                       0                        -1.5                     -4.498784198961196E-10+9.58138961443308E-10i
-0.9                      0                        -0.9                     -2.770264749454984E-10+5.700972442544696E-10i
-1.2                      0                        -0.6                     -2.420449378010506E-10+3.3315106116357636E-10i
-0.6                      0                        -1.2                     -3.3796518846216304E-10+7.253153023497152E-10i
-1.5                      0                        -0.3                     -1.719747772521248E-10+1.1721929962524297E-10i
-0.3                      0                        -1.5                     -4.431275495658027E-10+9.565757494950326E-10i
0                         0.9                      0.9                      3.4854558782006155E-10-3.2130764154712293E-10i
0                         1.2                      0.6                      2.3495483402025785E-10-1.772312524294759E-10i
0                         0.6                      1.2                      4.93173317076486E-10-4.793811609153532E-10i
0                         1.5                      0.3                      1.401894244727011E-10-6.532835317093581E-11i
0                         0.3                      1.5                      7.05912629027839E-10-6.184866895767962E-10i
0                         -0.9                     0.9                      3.485322781157559E-10-3.214612523447894E-10i
0                         -1.2                     0.6                      2.3497989184736306E-10-1.7726840228925327E-10i
0                         -0.6                     1.2                      4.932889188893971E-10-4.792798579718414E-10i
0                         -1.5                     0.3                      1.4145806558385787E-10-6.586228279078392E-11i
0                         -0.3                     1.5                      7.074624796220943E-10-6.157521482662406E-10i
0                         0.9                      -0.9                     -3.48587649443592E-10+3.2160188177472506E-10i
0                         1.2                      -0.6                     -2.3497345709034915E-10+1.7745519425741336E-10i
0                         0.6                      -1.2                     -4.929521650901333E-10+4.796941656508719E-10i
0                         1.5                      -0.3                     -1.404332520016404E-10+6.596512280932914E-11i
0                         0.3                      -1.5                     -7.067445891622612E-10+6.176326562990924E-10i
0                         -0.9                     -0.9                     -3.4861986602086986E-10+3.216209686703457E-10i
0                         -1.2                     -0.6                     -2.3507883782941664E-10+1.77543998811172E-10i
0                         -0.6                     -1.2                     -4.930703911376437E-10+4.797039632726432E-10i
0                         -1.5                     -0.3                     -1.4117952220657119E-10+6.580705477569947E-11i
0                         -0.3                     -1.5                     -7.068112547871918E-10+6.149003754090791E-10i
1.2                       1.2                      0                        -3.6228278353798656E-13+2.3711568677866462E-14i
1.2                       0.9                      0.3                      1.1167996742094919E-10-1.3929590787512738E-10i
1.2                       0.9                      -0.3                     -1.1318135423455784E-10+1.3885152560101174E-10i
0.9                       1.2                      0.3                      2.18904864611704E-11-1.2649915201506669E-10i
0.9                       1.2                      -0.3                     -2.1593604953734215E-11+1.2618304692801353E-10i
1.5                       0.9                      0                        -3.591344545779023E-13-2.4114754721474135E-14i
0.9                       1.5                      0                        6.888479795275541E-14+3.5899005433178634E-13i
0.9                       0.9                      0.6                      1.0554070414815416E-10-3.170323331805553E-10i
0.9                       0.9                      -0.6                     -1.0528786908146396E-10+3.173152001424308E-10i
1.2                       0.6                      0.6                      2.4236843995152896E-10-3.054127878570701E-10i
1.5                       0.6                      0.3                      1.7784692933356802E-10-1.0525345610851274E-10i
0.9                       0.6                      0.9                      2.2622836845974294E-10-5.294284632632191E-10i
1.2                       0.6                      -0.6                     -2.437353042278261E-10+3.0692820761250967E-10i
1.5                       0.6                      -0.3                     -1.7811877671361755E-10+1.0506231919000217E-10i
0.9                       0.6                      -0.9                     -2.280054146220483E-10+5.304870237031157E-10i
0.6                       1.2                      0.6                      2.53936689912562E-10-1.8552986132582194E-10i
0.6                       1.5                      0.3                      1.4922878592276353E-10-6.828446937328059E-11i