% Model:              Untitled.mph
% Version:            COMSOL 5.5.0.359
% Date:               Oct 10 2022, 17:29
% Dimension:          3
% Nodes:              665
% Expressions:        1
% Description:        Electric potential
% Length unit:        nm
% x                       y                        z                        V (V)
0                         0                        0                        -9.430055666387241E-12+7.078795173439988E-12i
0.3                       0.3                      0                        -1.157614757970663E-11+7.889603424915617E-12i
-0.3                      0.3                      0                        -7.865995000162996E-12+6.3996634571213285E-12i
0.3                       -0.3                     0                        -1.1487620742419948E-11+7.97948732905837E-12i
-0.3                      -0.3                     0                        -7.733117547729131E-12+6.775316346394275E-12i
0.3                       0                        0.3                      -2.412160637434719E-10-7.159519324098043E-11i
-0.3                      0                        0.3                      -2.339328707572859E-10-7.611985723043306E-11i
0.3                       0                        -0.3                     2.1941829225786854E-10+8.750147531516874E-11i
-0.3                      0                        -0.3                     2.206480048636249E-10+8.848994977233625E-11i
0                         0.3                      0.3                      -2.2137744940855927E-10-6.583451104622746E-11i
0                         -0.3                     0.3                      -2.216440936123398E-10-6.572466969940367E-11i
0                         0.3                      -0.3                     2.032201963878785E-10+8.018946987039155E-11i
0                         -0.3                     -0.3                     2.0311260489463188E-10+8.023791709333724E-11i
0.6                       0                        0                        -1.2635626902880301E-11+8.546152951196678E-12i
-0.6                      0                        0                        -5.860144161958333E-12+5.9030409173287476E-12i
0                         0.6                      0                        -1.0583381085784207E-11+7.402854101352359E-12i
0                         -0.6                     0                        -1.0431327658642395E-11+7.773687150097837E-12i
0                         0                        0.6                      -4.58126407286481E-10-1.5083108398833814E-10i
0                         0                        -0.6                     4.421794911040118E-10+1.643487869608226E-10i
0.6                       0.6                      0                        -1.3632574408130205E-11+8.915386452508172E-12i
0.6                       0.3                      0.3                      -2.5260407298900207E-10-7.281257371626807E-11i
0.6                       0.3                      -0.3                     2.265425727964927E-10+9.010534543228597E-11i
0.3                       0.6                      0.3                      -2.0359518390784372E-10-5.345286049071326E-11i
0.3                       0.6                      -0.3                     1.7886429208550707E-10+6.962182236445277E-11i
0.9                       0.3                      0                        -1.402003445576061E-11+9.017658507777187E-12i
0.3                       0.9                      0                        -1.3112015724510102E-11+8.61679123082679E-12i
0.3                       0.3                      0.6                      -4.5881736189325316E-10-1.4506414847711336E-10i
0.3                       0.3                      -0.6                     4.3637878669783775E-10+1.6070442089246674E-10i
-0.6                      0.6                      0                        -8.037579812540849E-12+6.198625560384384E-12i
-0.6                      0.3                      0.3                      -2.395710976773126E-10-8.052762701916754E-11i
-0.6                      0.3                      -0.3                     2.2899309931219328E-10+9.168542392405602E-11i
-0.3                      0.6                      0.3                      -1.9735840315577914E-10-5.6796339451837283E-11i
-0.3                      0.6                      -0.3                     1.8075891896263683E-10+7.004285901690295E-11i
-0.9                      0.3                      0                        -5.9686544347954705E-12+5.668608881202196E-12i
-0.3                      0.9                      0                        -1.0790000890784985E-11+7.101723963593793E-12i
-0.3                      0.3                      0.6                      -4.465063046090181E-10-1.5318720834409212E-10i
-0.3                      0.3                      -0.6                     4.3628932828783784E-10+1.6430781571723715E-10i
0.6                       -0.6                     0                        -1.354318864501177E-11+8.821270088998218E-12i
0.6                       -0.3                     0.3                      -2.524463825423111E-10-7.274404327225414E-11i
0.6                       -0.3                     -0.3                     2.2649456545762643E-10+8.997571407301888E-11i
0.3                       -0.6                     0.3                      -2.0319829175429464E-10-5.317590720070088E-11i
0.3                       -0.6                     -0.3                     1.7936417509949422E-10+6.975549497614695E-11i
0.9                       -0.3                     0                        -1.3751937723209494E-11+9.02623651596788E-12i
0.3                       -0.9                     0                        -1.3021619104736604E-11+8.745261140027591E-12i
0.3                       -0.3                     0.6                      -4.588359101382491E-10-1.4502865885282794E-10i
0.3                       -0.3                     -0.6                     4.363146357474662E-10+1.606094031614735E-10i
-0.6                      -0.6                     0                        -7.879303170500453E-12+7.124346620064415E-12i
-0.6                      -0.3                     0.3                      -2.398509716154162E-10-8.006744763664406E-11i
-0.6                      -0.3                     -0.3                     2.2926849422870548E-10+9.217551919400327E-11i
-0.3                      -0.6                     0.3                      -1.974803524474345E-10-5.604984985554121E-11i
-0.3                      -0.6                     -0.3                     1.808200186660103E-10+7.046056606541597E-11i
-0.9                      -0.3                     0                        -5.7308568533301915E-12+6.374397018001514E-12i
-0.3                      -0.9                     0                        -1.0723357724111752E-11+7.960262747613793E-12i
-0.3                      -0.3                     0.6                      -4.4619372831745736E-10-1.5242618602945876E-10i
-0.3                      -0.3                     -0.6                     4.3640024457278326E-10+1.6452931677505794E-10i
0.6                       0                        0.6                      -5.299531239483949E-10-1.7527226611875342E-10i
0.9                       0                        0.3                      -2.875038656333851E-10-8.576277580361862E-11i
0.3                       0                        0.9                      -7.362183318300412E-10-2.4574871521895204E-10i
-0.6                      0                        0.6                      -5.033246320074817E-10-1.916181503258096E-10i
-0.9                      0                        0.3                      -2.700668153121551E-10-9.599989239735762E-11i
-0.3                      0                        0.9                      -7.128067212886739E-10-2.600748275898169E-10i
0.6                       0                        -0.6                     5.03012639804016E-10+1.9201851983035115E-10i
0.9                       0                        -0.3                     2.594861286884263E-10+1.0352055295796205E-10i
0.3                       0                        -0.9                     7.137186315661129E-10+2.6103054733267665E-10i
-0.6                      0                        -0.6                     5.013076371333362E-10+1.9979759667245243E-10i
-0.9                      0                        -0.3                     2.6255945349811693E-10+1.0650438474629812E-10i
-0.3                      0                        -0.9                     7.114408752720064E-10+2.6922240781984257E-10i
0                         0.6                      0.6                      -3.802911183429468E-10-1.1353716176907046E-10i
0                         0.9                      0.3                      -1.5222054151641102E-10-3.3584694859903836E-11i
0                         0.3                      0.9                      -6.611531666116012E-10-2.1651623531949972E-10i
0                         -0.6                     0.6                      -3.802735043078179E-10-1.1308011146465389E-10i
0                         -0.9                     0.3                      -1.5205659569811836E-10-3.299248585460743E-11i
0                         -0.3                     0.9                      -6.614300745848639E-10-2.163806678494315E-10i
0                         0.6                      -0.6                     3.616515681526662E-10+1.2800742625487527E-10i
0                         0.9                      -0.3                     1.29363218545215E-10+4.912468473088445E-11i
0                         0.3                      -0.9                     6.468876433638026E-10+2.2965318213023035E-10i
0                         -0.6                     -0.6                     3.6147431528065994E-10+1.2800847327855857E-10i
0                         -0.9                     -0.3                     1.2964945661024863E-10+4.95566583277815E-11i
0                         -0.3                     -0.9                     6.466802951538388E-10+2.2961146961848874E-10i
1.2                       0                        0                        -1.3781961772040709E-11+8.34686964786266E-12i
-1.2                      0                        0                        -2.8896884846968835E-12+4.3933317666691575E-12i
0                         1.2                      0                        -1.3072547021455485E-11+8.330167116275255E-12i
0                         -1.2                     0                        -1.288424398069552E-11+8.894149398807276E-12i
0                         0                        1.2                      -9.577385501426318E-10-3.1169432119684323E-10i
0                         0                        -1.2                     9.456388405505545E-10+3.244399202234004E-10i
0.9                       0.9                      0                        -1.650966795782427E-11+9.775351196424487E-12i
0.9                       0.6                      0.3                      -2.5034519736819366E-10-6.44114731608503E-11i
0.9                       0.6                      -0.3                     2.2132243108747544E-10+8.338606190776061E-11i
0.6                       0.9                      0.3                      -1.7737454499904875E-10-3.7081501642174854E-11i
0.6                       0.9                      -0.3                     1.4762624192791904E-10+5.5566085827842044E-11i
1.2                       0.6                      0                        -1.4243078697675732E-11+8.742492102564235E-12i
0.6                       1.2                      0                        -1.6861318754044423E-11+9.83716434161967E-12i
0.6                       0.6                      0.6                      -4.418237035834663E-10-1.2957109122899013E-10i
0.6                       0.6                      -0.6                     4.144275740962874E-10+1.4762207322737833E-10i
0.9                       0.3                      0.6                      -5.67336157564827E-10-1.8341980568650183E-10i
1.2                       0.3                      0.3                      -2.188355594825304E-10-7.749182707127506E-11i
0.6                       0.3                      0.9                      -7.857732547985195E-10-2.679043753275293E-10i
0.9                       0.3                      -0.6                     5.386289946076943E-10+2.025282185738148E-10i
1.2                       0.3                      -0.3                     1.9100305806108624E-10+9.484074072017887E-11i
0.6                       0.3                      -0.9                     7.566846539830353E-10+2.852079664127301E-10i
0.3                       0.9                      0.6                      -3.0785223255070705E-10-7.646544294787786E-11i
0.3                       1.2                      0.3                      -1.0221939484700468E-10-1.0741420556098338E-11i
0.3                       0.6                      0.9                      -5.957392631868749E-10-1.7922598544815727E-10i
0.3                       0.9                      -0.6                     2.8245678622913887E-10+9.34103722806483E-11i
0.3                       1.2                      -0.3                     7.38135434004953E-11+2.872877831235445E-11i
0.3                       0.6                      -0.9                     5.727931996962656E-10+1.9567282038891608E-10i
1.5                       0.3                      0                        -1.2529632606615663E-11+7.151250688270833E-12i
0.3                       1.5                      0                        -1.7202562981131605E-11+1.0074129852610163E-11i
0.3                       0.3                      1.2                      -9.41524863486762E-10-3.037975155678104E-10i
0.3                       0.3                      -1.2                     9.17872687134526E-10+3.193123269200583E-10i
-0.9                      0.9                      0                        -1.0888376354538461E-11+6.4507959164796E-12i
-0.9                      0.6                      0.3                      -2.3752699580473596E-10-7.223665166036947E-11i
-0.9                      0.6                      -0.3                     2.234858917209009E-10+8.38003614442672E-11i
-0.6                      0.9                      0.3                      -1.6992483871762592E-10-4.18407639433892E-11i
-0.6                      0.9                      -0.3                     1.5059871617282896E-10+5.487911250305404E-11i
-1.2                      0.6                      0                        -5.571133735925155E-12+4.612051155826696E-12i
-0.6                      1.2                      0                        -1.2937602918170748E-11+6.931542492862232E-12i
-0.6                      0.6                      0.6                      -4.2405035700815514E-10-1.4133766304457038E-10i
-0.6                      0.6                      -0.6                     4.1382991172120426E-10+1.5146748938496886E-10i
-0.9                      0.3                      0.6                      -5.365285688926891E-10-2.0353676403543166E-10i
-1.2                      0.3                      0.3                      -1.9972584896298043E-10-8.947355469362381E-11i
-0.6                      0.3                      0.9                      -7.43951230632758E-10-2.963587140991432E-10i
-0.9                      0.3                      -0.6                     5.367694334757366E-10+2.110303765830875E-10i
-1.2                      0.3                      -0.3                     1.9482255488594473E-10+9.677450588684841E-11i
-0.6                      0.3                      -0.9                     7.514473011951368E-10+2.9889853242769444E-10i
-0.3                      0.9                      0.6                      -3.0133420183794246E-10-8.05663726765534E-11i
-0.3                      1.2                      0.3                      -9.927017105076242E-11-1.2629053882658775E-11i
-0.3                      0.6                      0.9                      -5.81345310324822E-10-1.889545892381858E-10i
-0.3                      0.9                      -0.6                     2.8330015050762093E-10+9.413526917318573E-11i
-0.3                      1.2                      -0.3                     7.554233644070576E-11+2.7686223610206428E-11i
-0.3                      0.6                      -0.9                     5.713872183661067E-10+1.9978045002304297E-10i
-1.5                      0.3                      0                        2.2819268610201453E-13+1.474511866212429E-12i
-0.3                      1.5                      0                        -1.4522842158902705E-11+8.480522719282631E-12i
-0.3                      0.3                      1.2                      -9.129124686561272E-10-3.213646843596648E-10i
-0.3                      0.3                      -1.2                     9.149638063563111E-10+3.295189867056395E-10i
0.9                       -0.9                     0                        -1.599410582894194E-11+9.503250783265096E-12i
0.9                       -0.6                     0.3                      -2.5003187136863905E-10-6.436777201975819E-11i
0.9                       -0.6                     -0.3                     2.204984222368728E-10+8.271490081418695E-11i
0.6                       -0.9                     0.3                      -1.7705387348306064E-10-3.70932602137041E-11i
0.6                       -0.9                     -0.3                     1.4789793953774428E-10+5.5330563835590273E-11i
1.2                       -0.6                     0                        -1.4414605620902167E-11+8.478552726646429E-12i
0.6                       -1.2                     0                        -1.6360813953540293E-11+9.588218273765663E-12i
0.6                       -0.6                     0.6                      -4.416540189667569E-10-1.2956255986537128E-10i
0.6                       -0.6                     -0.6                     4.1403756502571705E-10+1.46980097570767E-10i
0.9                       -0.3                     0.6                      -5.673245568634163E-10-1.8349133369822578E-10i
1.2                       -0.3                     0.3                      -2.183764601298605E-10-7.762675957855374E-11i
0.6                       -0.3                     0.9                      -7.862738029411637E-10-2.6865503467774505E-10i
0.9                       -0.3                     -0.6                     5.386546894862275E-10+2.0193581550346818E-10i
1.2                       -0.3                     -0.3                     1.904933560107382E-10+9.455913211678244E-11i
0.6                       -0.3                     -0.9                     7.572503887521599E-10+2.8511013066969935E-10i
0.3                       -0.9                     0.6                      -3.0758379267255507E-10-7.61879869450993E-11i
0.3                       -1.2                     0.3                      -1.0207018557206305E-10-1.0560150048928287E-11i
0.3                       -0.6                     0.9                      -5.961531156022986E-10-1.7931813524533481E-10i
0.3                       -0.9                     -0.6                     2.82425843426775E-10+9.332640954471433E-11i
0.3                       -1.2                     -0.3                     7.388123470606983E-11+2.885681545581294E-11i
0.3                       -0.6                     -0.9                     5.726309769381145E-10+1.953288433777111E-10i
1.5                       -0.3                     0                        -1.2515971411389904E-11+7.046469995222683E-12i
0.3                       -1.5                     0                        -1.6519471629624947E-11+1.0165893500411702E-11i
0.3                       -0.3                     1.2                      -9.41330288705264E-10-3.03522413699417E-10i
0.3                       -0.3                     -1.2                     9.178562240674779E-10+3.190485775379114E-10i
-0.9                      -0.9                     0                        -1.0803105645398015E-11+8.053620213084113E-12i
-0.9                      -0.6                     0.3                      -2.3773380521465555E-10-7.093614656418092E-11i
-0.9                      -0.6                     -0.3                     2.241882823474451E-10+8.493131277195527E-11i
-0.6                      -0.9                     0.3                      -1.6989978900098905E-10-4.039612048697231E-11i
-0.6                      -0.9                     -0.3                     1.508737262039899E-10+5.599007761459072E-11i
-1.2                      -0.6                     0                        -5.4776063392651615E-12+5.587730963607264E-12i
-0.6                      -1.2                     0                        -1.2844949917324767E-11+8.620653891461203E-12i
-0.6                      -0.6                     0.6                      -4.24389562485915E-10-1.396510161321698E-10i
-0.6                      -0.6                     -0.6                     4.147724201850483E-10+1.5219173637139434E-10i
-0.9                      -0.3                     0.6                      -5.377398056033931E-10-2.0223082056795753E-10i
-1.2                      -0.3                     0.3                      -2.002020117494994E-10-8.872852194478492E-11i
-0.6                      -0.3                     0.9                      -7.450178264796918E-10-2.9527420561130893E-10i
-0.9                      -0.3                     -0.6                     5.369788701753602E-10+2.1152670131652557E-10i
-1.2                      -0.3                     -0.3                     1.9511152229845364E-10+9.721903981310705E-11i
-0.6                      -0.3                     -0.9                     7.529955410935636E-10+2.997461691608841E-10i
-0.3                      -0.9                     0.6                      -3.012848512647561E-10-7.94719589530149E-11i
-0.3                      -1.2                     0.3                      -9.921927072765755E-11-1.1541031689899045E-11i
-0.3                      -0.6                     0.9                      -5.815446362015385E-10-1.8770734471476411E-10i
-0.3                      -0.9                     -0.6                     2.83397672253703E-10+9.465589135801395E-11i
-0.3                      -1.2                     -0.3                     7.580655264729174E-11+2.8681357417040198E-11i
-0.3                      -0.6                     -0.9                     5.715116369927591E-10+2.000396674642431E-10i
-1.5                      -0.3                     0                        4.933383159988486E-13+1.9785090216959875E-12i
-0.3                      -1.5                     0                        -1.436772554803341E-11+9.785303637761334E-12i
-0.3                      -0.3                     1.2                      -9.137285021990467E-10-3.211251713793744E-10i
-0.3                      -0.3                     -1.2                     9.151462037216448E-10+3.301003735616845E-10i
0.9                       0                        0.9                      -9.600988106176383E-10-3.5901473514404496E-10i
1.2                       0                        0.6                      -4.6013596641391827E-10-1.9058512724213897E-10i
0.6                       0                        1.2                      -1.194469851706924E-9-4.50426288355688E-10i
1.5                       0                        0.3                      -8.608282921552482E-11-6.754685262567673E-11i
0.3                       0                        1.5                      -1.4639240920097446E-9-4.4283669294155283E-10i
-0.9                      0                        0.9                      -8.885507719565967E-10-4.0630839090267173E-10i
-1.2                      0                        0.6                      -4.22747016875989E-10-2.1673666833479198E-10i
-0.6                      0                        1.2                      -1.109841724258412E-9-5.062823228074192E-10i
-1.5                      0                        0.3                      -6.33538340078185E-11-8.169378212553012E-11i
-0.3                      0                        1.5                      -1.4191589916074385E-9-4.6092866658073215E-10i
0.9                       0                        -0.9                     9.259547347713934E-10+3.756795436759339E-10i
1.2                       0                        -0.6                     4.327788023100533E-10+2.0851935236014305E-10i
0.6                       0                        -1.2                     1.1608323875725354E-9+4.65942941825635E-10i
1.5                       0                        -0.3                     6.160193459613766E-11+8.164914895342628E-11i
0.3                       0                        -1.5                     1.4276782489682527E-9+4.587383374129223E-10i
-0.9                      0                        -0.9                     9.179916564121263E-10+4.0376762902316585E-10i
-1.2                      0                        -0.6                     4.301799498255233E-10+2.1965314125287124E-10i
-0.6                      0                        -1.2                     1.1475878267015681E-9+4.993321347214116E-10i
-1.5                      0                        -0.3                     6.721759032716952E-11+8.33789513957885E-11i
-0.3                      0                        -1.5                     1.404527699592788E-9+4.653169880770065E-10i
0                         0.9                      0.9                      -1.780557882186382E-10-1.3958538409083617E-10i
0                         1.2                      0.6                      -3.0259446444693814E-11-6.317173456373573E-11i
0                         0.6                      1.2                      -3.5547955574434104E-10-2.3789121045702076E-10i
0                         1.5                      0.3                      4.230583324150924E-11-1.7593646664237304E-11i
0                         0.3                      1.5                      -4.571442128591059E-10-3.2886170183769646E-10i
0                         -0.9                     0.9                      -1.783978072782801E-10-1.3941637599393164E-10i
0                         -1.2                     0.6                      -3.0157700098716445E-11-6.279958016422662E-11i
0                         -0.6                     1.2                      -3.5517914939506684E-10-2.378282310666683E-10i
0                         -1.5                     0.3                      4.242921693849046E-11-1.7396658824177636E-11i
0                         -0.3                     1.5                      -4.4939900178353867E-10-3.2822927552524815E-10i
0                         0.9                      -0.9                     1.6276906030450695E-10+1.510557518802023E-10i
0                         1.2                      -0.6                     1.0299461451003238E-11+7.604583370129672E-11i
0                         0.6                      -1.2                     3.4547909508452585E-10+2.468634572695033E-10i
0                         1.5                      -0.3                     -6.440063728225956E-11+3.1164305313502534E-11i
0                         0.3                      -1.5                     4.4998655974366923E-10+3.358434047590467E-10i
0                         -0.9                     -0.9                     1.6313677828169895E-10+1.5131358150140753E-10i
0                         -1.2                     -0.6                     1.0810173179163166E-11+7.651901329943193E-11i
0                         -0.6                     -1.2                     3.4608366180867764E-10+2.4743248327051325E-10i
0                         -1.5                     -0.3                     -6.464033164130253E-11+3.181802331352019E-11i
0                         -0.3                     -1.5                     4.4123597564991496E-10+3.346305298700029E-10i
1.2                       1.2                      0                        -1.8455074287093963E-11+9.183230222527654E-12i
1.2                       0.9                      0.3                      -1.355839472355502E-10-4.490370025204053E-11i
1.2                       0.9                      -0.3                     1.0296173153306642E-10+6.27710816625927E-11i
0.9                       1.2                      0.3                      -1.425105659217509E-10-1.505990825823783E-11i
0.9                       1.2                      -0.3                     1.0445851100092403E-10+3.5922107665790746E-11i
1.5                       0.9                      0                        -1.3087360137149875E-11+7.121048314413199E-12i
0.9                       1.5                      0                        -2.8547868365892185E-11+1.0893424527153834E-11i
0.9                       0.9                      0.6                      -4.142249484770173E-10-9.958057203366592E-11i
0.9                       0.9                      -0.6                     3.8156281517496566E-10+1.196661998561769E-10i
1.2                       0.6                      0.6                      -3.54626103550262E-10-1.438519415272404E-10i
1.5                       0.6                      0.3                      -4.485220519134242E-11-5.36685927304304E-11i
0.9                       0.6                      0.9                      -7.969195382384682E-10-2.4653715693331176E-10i
1.2                       0.6                      -0.6                     3.309386022241608E-10+1.6280276322234687E-10i
1.5                       0.6                      -0.3                     1.86274497601917E-11+6.76970770033869E-11i
0.9                       0.6                      -0.9                     7.693049252033066E-10+2.6839615436632925E-10i
0.6                       1.2                      0.6                      -4.2971835865016475E-11-6.604550346248497E-11i
0.6                       1.5                      0.3                      3.9370279425731717E-11-1.7361694803751627E-11i