% Model:              Untitled.mph
% Version:            COMSOL 5.5.0.359
% Date:               Oct 10 2022, 11:37
% Dimension:          3
% Nodes:              665
% Expressions:        1
% Description:        Electric potential
% Length unit:        nm
% x                       y                        z                        V (V)
0                         0                        0                        6.941035856555582E-14-2.184832985698988E-14i
0.3                       0.3                      0                        4.924354674118256E-14-8.21818751579994E-15i
-0.3                      0.3                      0                        6.801364828738491E-14-3.778812060702442E-14i
0.3                       -0.3                     0                        8.615503515150587E-14-2.2941582386942995E-14i
-0.3                      -0.3                     0                        1.2216738336291734E-13-7.169400038252333E-14i
0.3                       0                        0.3                      5.997437532384059E-11-1.6234103197224735E-10i
-0.3                      0                        0.3                      5.998605469142691E-11-1.6236871789985498E-10i
0.3                       0                        -0.3                     -5.987495826481616E-11+1.6235290597678378E-10i
-0.3                      0                        -0.3                     -5.980892114197129E-11+1.6226800198066475E-10i
0                         0.3                      0.3                      5.998071093996313E-11-1.6236848936798435E-10i
0                         -0.3                     0.3                      6.003285277809585E-11-1.6239813945996998E-10i
0                         0.3                      -0.3                     -5.979449069570301E-11+1.6224809297465192E-10i
0                         -0.3                     -0.3                     -5.97983285229331E-11+1.6227901438588133E-10i
0.6                       0                        0                        1.0659276572160134E-13-4.963354127427699E-14i
-0.6                      0                        0                        8.424040272683631E-14-4.4814901892853884E-14i
0                         0.6                      0                        1.0921163578290859E-13-9.026567827836527E-14i
0                         -0.6                     0                        1.3147454242008648E-13-6.56521555069156E-14i
0                         0                        0.6                      1.1198862858294543E-10-3.164617413748846E-10i
0                         0                        -0.6                     -1.1181231940544723E-10+3.1638031940723806E-10i
0.6                       0.6                      0                        5.986725497000995E-14-3.227754390783593E-14i
0.6                       0.3                      0.3                      6.524862534649502E-11-1.6778685090568458E-10i
0.6                       0.3                      -0.3                     -6.509538926384418E-11+1.6772277491224562E-10i
0.3                       0.6                      0.3                      6.522627480046599E-11-1.6777390282311869E-10i
0.3                       0.6                      -0.3                     -6.509285547339296E-11+1.6769903571261524E-10i
0.9                       0.3                      0                        7.324236016804098E-14-1.9142983063775814E-14i
0.3                       0.9                      0                        8.392391730613034E-14-7.63084811279806E-14i
0.3                       0.3                      0.6                      1.174356817706168E-10-3.2201112042562613E-10i
0.3                       0.3                      -0.6                     -1.1726513000283471E-10+3.219025105892222E-10i
-0.6                      0.6                      0                        6.109633020686427E-14-4.069967412781946E-14i
-0.6                      0.3                      0.3                      6.523926869371186E-11-1.6781723178651466E-10i
-0.6                      0.3                      -0.3                     -6.510018960085961E-11+1.6772512054715053E-10i
-0.3                      0.6                      0.3                      6.525488493798431E-11-1.678253462030007E-10i
-0.3                      0.6                      -0.3                     -6.502896000356963E-11+1.6763461302106474E-10i
-0.9                      0.3                      0                        8.055456599256607E-14-5.724967855262663E-14i
-0.3                      0.9                      0                        6.028931269021069E-14-3.4368639312436334E-14i
-0.3                      0.3                      0.6                      1.1748107765248168E-10-3.220743315490433E-10i
-0.3                      0.3                      -0.6                     -1.173287592667756E-10+3.219746370741124E-10i
0.6                       -0.6                     0                        9.981221113261251E-14-6.751817292240569E-15i
0.6                       -0.3                     0.3                      6.525686948298808E-11-1.677783635191518E-10i
0.6                       -0.3                     -0.3                     -6.505820144484134E-11+1.6772233439796924E-10i
0.3                       -0.6                     0.3                      6.522827587361796E-11-1.6773668848278656E-10i
0.3                       -0.6                     -0.3                     -6.506857937663807E-11+1.6774679779439127E-10i
0.9                       -0.3                     0                        1.1858795497552554E-14+6.73493703078876E-14i
0.3                       -0.9                     0                        1.100562655559173E-13-2.2458641628742688E-14i
0.3                       -0.3                     0.6                      1.1743578368035017E-10-3.21979763433687E-10i
0.3                       -0.3                     -0.6                     -1.1722575348218396E-10+3.2190858185430645E-10i
-0.6                      -0.6                     0                        7.60183395754458E-14-6.990553708171187E-15i
-0.6                      -0.3                     0.3                      6.52434309786289E-11-1.6778518556861546E-10i
-0.6                      -0.3                     -0.3                     -6.50516940732095E-11+1.676937732514399E-10i
-0.3                      -0.6                     0.3                      6.52954833653608E-11-1.6782347320698507E-10i
-0.3                      -0.6                     -0.3                     -6.501177284924887E-11+1.6767555269168512E-10i
-0.9                      -0.3                     0                        9.983709182735987E-14-6.253128315865047E-14i
-0.3                      -0.9                     0                        1.0810931206459628E-13-3.3354312809260657E-14i
-0.3                      -0.3                     0.6                      1.174731530435216E-10-3.2204352200463346E-10i
-0.3                      -0.3                     -0.6                     -1.1726230524679063E-10+3.219356719675713E-10i
0.6                       0                        0.6                      1.2243127523036487E-10-3.275670356346582E-10i
0.9                       0                        0.3                      6.935705270443647E-11-1.7295349335278912E-10i
0.3                       0                        0.9                      1.5855140389643142E-10-4.649634885926092E-10i
-0.6                      0                        0.6                      1.2245411433847293E-10-3.276279441436713E-10i
-0.9                      0                        0.3                      6.93850838628476E-11-1.730153156048475E-10i
-0.3                      0                        0.9                      1.5852304397743259E-10-4.649726410767867E-10i
0.6                       0                        -0.6                     -1.223111928218536E-10+3.275619404282292E-10i
0.9                       0                        -0.3                     -6.925168960328344E-11+1.729525201567577E-10i
0.3                       0                        -0.9                     -1.5841605280263677E-10+4.6491909079065207E-10i
-0.6                      0                        -0.6                     -1.2224952583494403E-10+3.274706208929948E-10i
-0.9                      0                        -0.3                     -6.918938034546393E-11+1.7289657056272944E-10i
-0.3                      0                        -0.9                     -1.584494494601725E-10+4.649613053899196E-10i
0                         0.6                      0.6                      1.22454936848206E-10-3.2762975970075666E-10i
0                         0.9                      0.3                      6.93777544379696E-11-1.7304974269064107E-10i
0                         0.3                      0.9                      1.5866623520944907E-10-4.651015615654817E-10i
0                         -0.6                     0.6                      1.2248158382890093E-10-3.276102952118622E-10i
0                         -0.9                     0.3                      6.94674998089555E-11-1.7304293795030274E-10i
0                         -0.3                     0.9                      1.5856731486200232E-10-4.6497361089716077E-10i
0                         0.6                      -0.6                     -1.2235755315654626E-10+3.2757682600555037E-10i
0                         0.9                      -0.3                     -6.92484741078753E-11+1.7292164003834476E-10i
0                         0.3                      -0.9                     -1.5832704277182367E-10+4.648187498230024E-10i
0                         -0.6                     -0.6                     -1.2223943143549743E-10+3.2752077065488767E-10i
0                         -0.9                     -0.3                     -6.919049614261372E-11+1.7294887498757555E-10i
0                         -0.3                     -0.9                     -1.5833224242477622E-10+4.6487973347477915E-10i
1.2                       0                        0                        1.3509382844623736E-13-6.833535105961577E-14i
-1.2                      0                        0                        7.641518109557858E-14-5.884119455833828E-14i
0                         1.2                      0                        1.0640816025871243E-13-7.399295099090407E-14i
0                         -1.2                     0                        1.274647006311131E-13-3.194377442828705E-14i
0                         0                        1.2                      1.804554408517159E-10-5.883313387069754E-10i
0                         0                        -1.2                     -1.8025314193042407E-10+5.88226178368711E-10i
0.9                       0.9                      0                        2.1319741780406027E-14-1.7410260736506847E-15i
0.9                       0.6                      0.3                      7.606265262842127E-11-1.7824424490497973E-10i
0.9                       0.6                      -0.3                     -7.589213082701106E-11+1.781124318771569E-10i
0.6                       0.9                      0.3                      7.600140467070365E-11-1.781890754384837E-10i
0.6                       0.9                      -0.3                     -7.592806580525096E-11+1.7815332622518118E-10i
1.2                       0.6                      0                        8.782854255099992E-14-5.112978374112119E-14i
0.6                       1.2                      0                        3.3718858288918146E-14-3.795675039327078E-14i
0.6                       0.6                      0.6                      1.3433658284692676E-10-3.3839654151076317E-10i
0.6                       0.6                      -0.6                     -1.3420728120004057E-10+3.3833779928133764E-10i
0.9                       0.3                      0.6                      1.3785132663898115E-10-3.4394325254918314E-10i
1.2                       0.3                      0.3                      7.784805849168426E-11-1.8277587209336988E-10i
0.6                       0.3                      0.9                      1.754074728519767E-10-4.819142658717803E-10i
0.9                       0.3                      -0.6                     -1.3768667458499844E-10+3.438799053064813E-10i
1.2                       0.3                      -0.3                     -7.770068851121937E-11+1.8272422489620276E-10i
0.6                       0.3                      -0.9                     -1.7529963364618506E-10+4.819012653057687E-10i
0.3                       0.9                      0.6                      1.3782752996218607E-10-3.4399110110818116E-10i
0.3                       1.2                      0.3                      7.77854048659854E-11-1.8277513295362716E-10i
0.3                       0.6                      0.9                      1.7532644872184965E-10-4.818790262661374E-10i
0.3                       0.9                      -0.6                     -1.3773984589686692E-10+3.439025601513934E-10i
0.3                       1.2                      -0.3                     -7.771775623410086E-11+1.827468343218435E-10i
0.3                       0.6                      -0.9                     -1.752585688283515E-10+4.818392583819358E-10i
1.5                       0.3                      0                        1.3261626736213024E-13-5.210057808416723E-14i
0.3                       1.5                      0                        1.22176044091706E-13-7.739684719368279E-14i
0.3                       0.3                      1.2                      1.9136571730141043E-10-5.991734028823822E-10i
0.3                       0.3                      -1.2                     -1.9128053807112978E-10+5.991545471877974E-10i
-0.9                      0.9                      0                        5.967033443526198E-14-4.4484918087814495E-14i
-0.9                      0.6                      0.3                      7.601192699726624E-11-1.7823959526251854E-10i
-0.9                      0.6                      -0.3                     -7.579816322324658E-11+1.7803700705883966E-10i
-0.6                      0.9                      0.3                      7.595463100679889E-11-1.7819884935615307E-10i
-0.6                      0.9                      -0.3                     -7.585395378626464E-11+1.7807859154380044E-10i
-1.2                      0.6                      0                        -1.4111863055293547E-15-2.4909931808016428E-14i
-0.6                      1.2                      0                        8.160319616230222E-14-6.794320567223074E-14i
-0.6                      0.6                      0.6                      1.3427883253431915E-10-3.384032402939972E-10i
-0.6                      0.6                      -0.6                     -1.3410782650581393E-10+3.3826924771206783E-10i
-0.9                      0.3                      0.6                      1.378192580109121E-10-3.4400741206235284E-10i
-1.2                      0.3                      0.3                      7.783069713058969E-11-1.8283952947053936E-10i
-0.6                      0.3                      0.9                      1.7534897613131417E-10-4.819532988092747E-10i
-0.9                      0.3                      -0.6                     -1.3769054823796014E-10+3.438830967262632E-10i
-1.2                      0.3                      -0.3                     -7.766863427083664E-11+1.8273054703103712E-10i
-0.6                      0.3                      -0.9                     -1.7522183740786692E-10+4.81831881730201E-10i
-0.3                      0.9                      0.6                      1.377971695387412E-10-3.4397021084293857E-10i
-0.3                      1.2                      0.3                      7.782432550894462E-11-1.828459749790216E-10i
-0.3                      0.6                      0.9                      1.7532256277403717E-10-4.819237739659822E-10i
-0.3                      0.9                      -0.6                     -1.3765770290176369E-10+3.438561831923518E-10i
-0.3                      1.2                      -0.3                     -7.7694059817781E-11+1.8272100183033048E-10i
-0.3                      0.6                      -0.9                     -1.751821200317645E-10+4.817986318385375E-10i
-1.5                      0.3                      0                        1.0490317618887166E-13-7.407910592598701E-14i
-0.3                      1.5                      0                        1.2121129897932535E-13-7.660045738926919E-14i
-0.3                      0.3                      1.2                      1.9136403698342655E-10-5.991845128294825E-10i
-0.3                      0.3                      -1.2                     -1.9126198572550747E-10+5.991130634056594E-10i
0.9                       -0.9                     0                        7.704752435767219E-14+3.480284778021745E-14i
0.9                       -0.6                     0.3                      7.606778010701467E-11-1.781806255881204E-10i
0.9                       -0.6                     -0.3                     -7.582460094544627E-11+1.7813298820720608E-10i
0.6                       -0.9                     0.3                      7.602113368704218E-11-1.781570222838646E-10i
0.6                       -0.9                     -0.3                     -7.590304823419729E-11+1.7818094732684774E-10i
1.2                       -0.6                     0                        6.324165764789968E-14+2.7122853614002602E-15i
0.6                       -1.2                     0                        1.355954729160103E-13-4.088067136624011E-14i
0.6                       -0.6                     0.6                      1.3437776994442566E-10-3.384307014819705E-10i
0.6                       -0.6                     -0.6                     -1.3419409670204025E-10+3.384194560963476E-10i
0.9                       -0.3                     0.6                      1.3791181993832958E-10-3.4400848801377353E-10i
1.2                       -0.3                     0.3                      7.784891153063739E-11-1.8279821256036852E-10i
0.6                       -0.3                     0.9                      1.7543350812371726E-10-4.819281354298641E-10i
0.9                       -0.3                     -0.6                     -1.3766939478635514E-10+3.4391347387129574E-10i
1.2                       -0.3                     -0.3                     -7.761821233108147E-11+1.8272194476951504E-10i
0.6                       -0.3                     -0.9                     -1.7518965769056033E-10+4.818657092779776E-10i
0.3                       -0.9                     0.6                      1.3785137149997595E-10-3.4394705906036193E-10i
0.3                       -1.2                     0.3                      7.780013923660677E-11-1.8275329205741086E-10i
0.3                       -0.6                     0.9                      1.754415701725738E-10-4.819448969240036E-10i
0.3                       -0.9                     -0.6                     -1.375779776866225E-10+3.439022943857265E-10i
0.3                       -1.2                     -0.3                     -7.763249599698424E-11+1.8276239791844674E-10i
0.3                       -0.6                     -0.9                     -1.7510614328888754E-10+4.818055702279475E-10i
1.5                       -0.3                     0                        1.4947799666471885E-13-4.619268890405484E-14i
0.3                       -1.5                     0                        1.5966977737751856E-13-4.350569812722367E-14i
0.3                       -0.3                     1.2                      1.9140435017329395E-10-5.991880352421969E-10i
0.3                       -0.3                     -1.2                     -1.912732493955741E-10+5.991994848300712E-10i
-0.9                      -0.9                     0                        1.0649483523833053E-13-5.361592326106117E-14i
-0.9                      -0.6                     0.3                      7.606565572410453E-11-1.782333978173379E-10i
-0.9                      -0.6                     -0.3                     -7.587503830134597E-11+1.7815607742384245E-10i
-0.6                      -0.9                     0.3                      7.602735833572782E-11-1.7817645590563097E-10i
-0.6                      -0.9                     -0.3                     -7.587895689756907E-11+1.7816486274610589E-10i
-1.2                      -0.6                     0                        8.810952513010853E-14-3.668528717893318E-14i
-0.6                      -1.2                     0                        1.1067655177144577E-13-4.5421655139619856E-14i
-0.6                      -0.6                     0.6                      1.3431694982800738E-10-3.3839180801320983E-10i
-0.6                      -0.6                     -0.6                     -1.3417797269355658E-10+3.383620865497823E-10i
-0.9                      -0.3                     0.6                      1.3783669554626092E-10-3.439715393421462E-10i
-1.2                      -0.3                     0.3                      7.781147414354446E-11-1.8280050348062256E-10i
-0.6                      -0.3                     0.9                      1.7537474811992983E-10-4.819353063023519E-10i
-0.9                      -0.3                     -0.6                     -1.377115515154429E-10+3.439263718952611E-10i
-1.2                      -0.3                     -0.3                     -7.764384099112646E-11+1.8269328904828103E-10i
-0.6                      -0.3                     -0.9                     -1.7514882099439755E-10+4.817785812420866E-10i
-0.3                      -0.9                     0.6                      1.3781619976085136E-10-3.4389209082343136E-10i
-0.3                      -1.2                     0.3                      7.794781085304381E-11-1.828554847525678E-10i
-0.3                      -0.6                     0.9                      1.7530309836283675E-10-4.818366308362262E-10i
-0.3                      -0.9                     -0.6                     -1.3761366495145935E-10+3.438797033523739E-10i
-0.3                      -1.2                     -0.3                     -7.759573311561173E-11+1.8273101521502224E-10i
-0.3                      -0.6                     -0.9                     -1.7514982268389147E-10+4.818112667479751E-10i
-1.5                      -0.3                     0                        1.2886251236694848E-13-5.688723780304718E-14i
-0.3                      -1.5                     0                        1.3032007286401876E-13-3.9351834428506406E-14i
-0.3                      -0.3                     1.2                      1.9141359343525315E-10-5.99205185997832E-10i
-0.3                      -0.3                     -1.2                     -1.9123881126540402E-10+5.991420922123219E-10i
0.9                       0                        0.9                      1.9012797024447677E-10-4.997657625695161E-10i
1.2                       0                        0.6                      1.4831014074580882E-10-3.5947007275924085E-10i
0.6                       0                        1.2                      2.0227394324467033E-10-6.108544607031761E-10i
1.5                       0                        0.3                      8.182303548536405E-11-1.9089008481691212E-10i
0.3                       0                        1.5                      1.9113224015510271E-10-7.004986746915699E-10i
-0.9                      0                        0.9                      1.9012138486857455E-10-4.998306932362152E-10i
-1.2                      0                        0.6                      1.483555528703313E-10-3.595306800622663E-10i
-0.6                      0                        1.2                      2.0235866867848962E-10-6.11013857434121E-10i
-1.5                      0                        0.3                      8.187242577394612E-11-1.9094458259275477E-10i
-0.3                      0                        1.5                      1.9114993901226712E-10-7.005410580231436E-10i
0.9                       0                        -0.9                     -1.9001464972452681E-10+4.997602325671441E-10i
1.2                       0                        -0.6                     -1.4822884200734028E-10+3.59492543643528E-10i
0.6                       0                        -1.2                     -2.021248956914059E-10+6.108174457936032E-10i
1.5                       0                        -0.3                     -8.167462600069538E-11+1.9085975208070074E-10i
0.3                       0                        -1.5                     -1.90952517773998E-10+7.004506973577795E-10i
-0.9                      0                        -0.9                     -1.899923588648316E-10+4.997059552091482E-10i
-1.2                      0                        -0.6                     -1.4819210995964984E-10+3.59431636864112E-10i
-0.6                      0                        -1.2                     -2.0209288802070933E-10+6.107922041104332E-10i
-1.5                      0                        -0.3                     -8.173588277233331E-11+1.9086695048765995E-10i
-0.3                      0                        -1.5                     -1.9101196632312713E-10+7.004743520964913E-10i
0                         0.9                      0.9                      1.9016176200832287E-10-4.998673851295411E-10i
0                         1.2                      0.6                      1.483404016868106E-10-3.595608423278528E-10i
0                         0.6                      1.2                      2.022168789190114E-10-6.108898586109287E-10i
0                         1.5                      0.3                      8.182648515959046E-11-1.909289538646321E-10i
0                         0.3                      1.5                      1.9114919411163443E-10-7.005461176277104E-10i
0                         -0.9                     0.9                      1.90264716161472E-10-4.998495430701891E-10i
0                         -1.2                     0.6                      1.483190779139752E-10-3.5945652943749275E-10i
0                         -0.6                     1.2                      2.023048913406631E-10-6.108799360214069E-10i
0                         -1.5                     0.3                      8.185919250928392E-11-1.9090289369789034E-10i
0                         -0.3                     1.5                      1.9119129087975225E-10-7.005488159273997E-10i
0                         0.9                      -0.9                     -1.9009023494769905E-10+4.997854904879247E-10i
0                         1.2                      -0.6                     -1.4824838399169888E-10+3.5949253722094865E-10i
0                         0.6                      -1.2                     -2.0213185115158836E-10+6.107983061732452E-10i
0                         1.5                      -0.3                     -8.17162691517687E-11+1.9084112376881216E-10i
0                         0.3                      -1.5                     -1.910195213063681E-10+7.004700118401195E-10i
0                         -0.9                     -0.9                     -1.8991647531905495E-10+4.997493246202099E-10i
0                         -1.2                     -0.6                     -1.4817955770643188E-10+3.594620517447271E-10i
0                         -0.6                     -1.2                     -2.0214381115703623E-10+6.109192697328141E-10i
0                         -1.5                     -0.3                     -8.162713380331982E-11+1.9086086495123553E-10i
0                         -0.3                     -1.5                     -1.9093969749407835E-10+7.004554653057203E-10i
1.2                       1.2                      0                        1.303134023399368E-14-5.696287516620327E-14i
1.2                       0.9                      0.3                      9.301033218526268E-11-1.9294239215235412E-10i
1.2                       0.9                      -0.3                     -9.284252655389262E-11+1.9287664555071587E-10i
0.9                       1.2                      0.3                      9.295177157676607E-11-1.9294583580546097E-10i
0.9                       1.2                      -0.3                     -9.276874632372778E-11+1.9282775579016286E-10i
1.5                       0.9                      0                        9.513640884350049E-14-4.948303215967031E-14i
0.9                       1.5                      0                        1.2389978418608484E-13-7.881436832865209E-14i
0.9                       0.9                      0.6                      1.6422233705006128E-10-3.6487332340714687E-10i
0.9                       0.9                      -0.6                     -1.6413484023569636E-10+3.648227095037373E-10i
1.2                       0.6                      0.6                      1.6405272593942784E-10-3.69570994734975E-10i
1.5                       0.6                      0.3                      9.043650533075427E-11-1.9599538881654206E-10i
0.9                       0.6                      0.9                      2.11185764930297E-10-5.153978369518569E-10i
1.2                       0.6                      -0.6                     -1.639899103728311E-10+3.69609034691073E-10i
1.5                       0.6                      -0.3                     -9.037009270915015E-11+1.959822398827935E-10i
0.9                       0.6                      -0.9                     -2.111732326066167E-10+5.154042130112531E-10i
0.6                       1.2                      0.6                      1.6411002842464661E-10-3.6963829778565767E-10i
0.6                       1.5                      0.3                      9.051250961201296E-11-1.9605476264027365E-10i