% Model:              Untitled.mph
% Version:            COMSOL 5.5.0.359
% Date:               Oct 10 2022, 11:29
% Dimension:          3
% Nodes:              665
% Expressions:        1
% Description:        Electric potential
% Length unit:        nm
% x                       y                        z                        V (V)
0                         0                        0                        1.9334686765488556E-12-4.877222777334611E-13i
0.3                       0.3                      0                        1.5971787051918243E-12-3.564477389434892E-13i
-0.3                      0.3                      0                        1.8353979276649773E-12-2.262817348122405E-13i
0.3                       -0.3                     0                        2.0814288182012003E-12-1.009271677513891E-12i
-0.3                      -0.3                     0                        2.362855539184453E-12-6.003040051222797E-13i
0.3                       0                        0.3                      1.4840395753880693E-14-4.2837304913488766E-10i
-0.3                      0                        0.3                      2.307371434039241E-13-4.280985643810068E-10i
0.3                       0                        -0.3                     3.585048839256287E-12+4.272061848333059E-10i
-0.3                      0                        -0.3                     3.875949097962098E-12+4.273208076788019E-10i
0                         0.3                      0.3                      -7.88359371847239E-15-4.281197423119876E-10i
0                         -0.3                     0.3                      3.4892184779128953E-13-4.2861396126202325E-10i
0                         0.3                      -0.3                     3.554157895865172E-12+4.271618316705601E-10i
0                         -0.3                     -0.3                     4.133994068741149E-12+4.2686907827341694E-10i
0.6                       0                        0                        1.8995483033818412E-12-1.0358541514975263E-12i
-0.6                      0                        0                        2.1909097846093942E-12-1.517177377544493E-13i
0                         0.6                      0                        1.654622384154519E-12-4.433016698115703E-13i
0                         -0.6                     0                        2.4610521358574187E-12-1.0516407556643286E-12i
0                         0                        0.6                      -2.1360498692038155E-11-8.158099058622507E-10i
0                         0                        -0.6                     2.5256684024547286E-11+8.146355288046729E-10i
0.6                       0.6                      0                        1.3229845259991577E-12-2.2675986698102686E-13i
0.6                       0.3                      0.3                      1.3430884566762087E-11-4.5450452898535167E-10i
0.6                       0.3                      -0.3                     -1.0268306604048385E-11+4.533855546635846E-10i
0.3                       0.6                      0.3                      1.3332525744116763E-11-4.541450173676467E-10i
0.3                       0.6                      -0.3                     -1.0480249485945147E-11+4.5367648308224274E-10i
0.9                       0.3                      0                        1.5962716563835212E-12-5.699088862852292E-13i
0.3                       0.9                      0                        1.3083108040687853E-12-2.0752609735369594E-13i
0.3                       0.3                      0.6                      -7.367741696660705E-12-8.4317508770861E-10i
0.3                       0.3                      -0.6                     1.0507702093558372E-11+8.420646259224294E-10i
-0.6                      0.6                      0                        1.8145449474283723E-12-3.2357458313371363E-14i
-0.6                      0.3                      0.3                      1.3635836241522175E-11-4.542190189559574E-10i
-0.6                      0.3                      -0.3                     -9.811869597922516E-12+4.5401302684607424E-10i
-0.3                      0.6                      0.3                      1.351004672851738E-11-4.5434481144337385E-10i
-0.3                      0.6                      -0.3                     -9.976568801798944E-12+4.535252858946665E-10i
-0.9                      0.3                      0                        2.0944314586490215E-12-1.2688858260097725E-14i
-0.3                      0.9                      0                        1.653701722091982E-12-5.541113464508387E-14i
-0.3                      0.3                      0.6                      -7.11488581855154E-12-8.433210852743131E-10i
-0.3                      0.3                      -0.6                     1.0662325341088725E-11+8.427609187220523E-10i
0.6                       -0.6                     0                        2.3255170949677013E-12-1.637975784553347E-12i
0.6                       -0.3                     0.3                      1.3507343738496776E-11-4.552834657106291E-10i
0.6                       -0.3                     -0.3                     -9.373872120815346E-12+4.5252613922842977E-10i
0.3                       -0.6                     0.3                      1.3603202218545377E-11-4.5502523883868714E-10i
0.3                       -0.6                     -0.3                     -9.06795319218867E-12+4.52619651700495E-10i
0.9                       -0.3                     0                        1.8717644210133366E-12-1.1388317022904596E-12i
0.3                       -0.9                     0                        2.5036617950407643E-12-1.4967201587055781E-12i
0.3                       -0.3                     0.6                      -7.356354179308972E-12-8.435868734295039E-10i
0.3                       -0.3                     -0.6                     1.159383533404492E-11+8.412922069248541E-10i
-0.6                      -0.6                     0                        2.6507743451458547E-12-2.868822910364962E-15i
-0.6                      -0.3                     0.3                      1.39956249082785E-11-4.5416128386455647E-10i
-0.6                      -0.3                     -0.3                     -9.123875031566215E-12+4.538177864609026E-10i
-0.3                      -0.6                     0.3                      1.411254434142393E-11-4.54647740810289E-10i
-0.3                      -0.6                     -0.3                     -8.810697046757486E-12+4.532427174337566E-10i
-0.9                      -0.3                     0                        2.5294580554132465E-12+1.415831481616655E-14i
-0.3                      -0.9                     0                        2.740397464357129E-12-5.147852782647322E-13i
-0.3                      -0.3                     0.6                      -6.979707743149466E-12-8.433197479886619E-10i
-0.3                      -0.3                     -0.6                     1.1582880398976424E-11+8.422843982869776E-10i
0.6                       0                        0.6                      2.9008104979412835E-12-8.705752122585535E-10i
0.9                       0                        0.3                      1.9069896522687248E-11-4.784259994557921E-10i
0.3                       0                        0.9                      -5.6785649334696166E-11-1.1759875258986007E-9i
-0.6                      0                        0.6                      3.3189391105031374E-12-8.701070248962868E-10i
-0.9                      0                        0.3                      1.964573570230174E-11-4.776607922831738E-10i
-0.3                      0                        0.9                      -5.676655681688664E-11-1.1756738353914545E-9i
0.6                       0                        -0.6                     5.324898259711547E-13+8.688575038883083E-10i
0.9                       0                        -0.3                     -1.5713383339627862E-11+4.765462516270877E-10i
0.3                       0                        -0.9                     6.02747236638466E-11+1.1745212986068074E-9i
-0.6                      0                        -0.6                     8.801951525764593E-13+8.695492942990728E-10i
-0.9                      0                        -0.3                     -1.4980861803586496E-11+4.776068759070169E-10i
-0.3                      0                        -0.9                     6.041985317914589E-11+1.1754081422048065E-9i
0                         0.6                      0.6                      2.944574809956862E-12-8.702303195509995E-10i
0                         0.9                      0.3                      1.8820954418959087E-11-4.778926431884894E-10i
0                         0.3                      0.9                      -5.6472659069943914E-11-1.1764126888103462E-9i
0                         -0.6                     0.6                      3.2268209490310253E-12-8.706026619675926E-10i
0                         -0.9                     0.3                      1.9838581836537758E-11-4.7871518206369E-10i
0                         -0.3                     0.9                      -5.667210145567399E-11-1.1759834802347306E-9i
0                         0.6                      -0.6                     -1.5949392546243274E-13+8.699116988711448E-10i
0                         0.9                      -0.3                     -1.6172032623978025E-11+4.775265563506523E-10i
0                         0.3                      -0.9                     6.014632170444714E-11+1.174581670640967E-9i
0                         -0.6                     -0.6                     1.6569304536097624E-12+8.685401462134787E-10i
0                         -0.9                     -0.3                     -1.4403149835549178E-11+4.764717796565831E-10i
0                         -0.3                     -0.9                     6.123380582039096E-11+1.174270987858829E-9i
1.2                       0                        0                        2.036296389678009E-12-1.2980314608324737E-12i
-1.2                      0                        0                        2.3101560700853485E-12+1.4729745960474602E-13i
0                         1.2                      0                        1.6649392822779146E-12-2.0132009567020654E-13i
0                         -1.2                     0                        2.851416515704314E-12-1.0492775885721787E-12i
0                         0                        1.2                      -1.5377719660633988E-10-1.4082912222572801E-9i
0                         0                        -1.2                     1.5775905118197654E-10+1.4070429270061213E-9i
0.9                       0.9                      0                        9.624181918949871E-13+2.3805581176718654E-13i
0.9                       0.6                      0.3                      4.5373515468072526E-11-5.049522962413695E-10i
0.9                       0.6                      -0.3                     -4.289461614774356E-11+5.043350746295118E-10i
0.6                       0.9                      0.3                      4.516530054967129E-11-5.044828064308476E-10i
0.6                       0.9                      -0.3                     -4.30727885195875E-11+5.048064330276689E-10i
1.2                       0.6                      0                        1.35778860701915E-12-2.7856204129805223E-13i
0.6                       1.2                      0                        9.395929469043944E-13+2.0897025067592956E-13i
0.6                       0.6                      0.6                      4.155469414793428E-11-9.235272348170587E-10i
0.6                       0.6                      -0.6                     -3.905460784477852E-11+9.233895958154845E-10i
0.9                       0.3                      0.6                      4.011319143384823E-11-9.486442873047211E-10i
1.2                       0.3                      0.3                      3.5795774065851614E-11-5.222032427174047E-10i
0.6                       0.3                      0.9                      -1.252333140850788E-11-1.2609930336939629E-9i
0.9                       0.3                      -0.6                     -3.714298614538114E-11+9.473815054314265E-10i
1.2                       0.3                      -0.3                     -3.2721387967484116E-11+5.210636049340253E-10i
0.6                       0.3                      -0.9                     1.5345568568663353E-11+1.2603379698384757E-9i
0.3                       0.9                      0.6                      3.9681227905317285E-11-9.483118121870494E-10i
0.3                       1.2                      0.3                      3.532094487216253E-11-5.214742334818878E-10i
0.3                       0.6                      0.9                      -1.2985516744310655E-11-1.2605160850376296E-9i
0.3                       0.9                      -0.6                     -3.7768503160362446E-11+9.483856560158138E-10i
0.3                       1.2                      -0.3                     -3.30252232380912E-11+5.218380423203224E-10i
0.3                       0.6                      -0.9                     1.5102786004149174E-11+1.2605577587460182E-9i
1.5                       0.3                      0                        1.967860112415871E-12-7.497270359115727E-13i
0.3                       1.5                      0                        1.702463877422464E-12-1.2433475732924599E-13i
0.3                       0.3                      1.2                      -1.2554689641795975E-10-1.4643771827802042E-9i
0.3                       0.3                      -1.2                     1.2839984842024695E-10+1.4639590404146899E-9i
-0.9                      0.9                      0                        1.957962789057138E-12+1.0413547011480238E-13i
-0.9                      0.6                      0.3                      4.5614929045997414E-11-5.047894066896581E-10i
-0.9                      0.6                      -0.3                     -4.167766479698333E-11+5.044617859843028E-10i
-0.6                      0.9                      0.3                      4.5179011261831425E-11-5.046992687568892E-10i
-0.6                      0.9                      -0.3                     -4.206518911107052E-11+5.045867108859197E-10i
-1.2                      0.6                      0                        1.6648661639421294E-12+3.454904485895054E-13i
-0.6                      1.2                      0                        1.8866468312748787E-12-7.069808226951464E-14i
-0.6                      0.6                      0.6                      4.139676577483376E-11-9.236532650246413E-10i
-0.6                      0.6                      -0.6                     -3.7894451085313756E-11+9.233308980993818E-10i
-0.9                      0.3                      0.6                      4.010027198661394E-11-9.484227549287484E-10i
-1.2                      0.3                      0.3                      3.607281870828365E-11-5.217442259740542E-10i
-0.6                      0.3                      0.9                      -1.2855037706344926E-11-1.2609565892104934E-9i
-0.9                      0.3                      -0.6                     -3.648985358869245E-11+9.48455762638189E-10i
-1.2                      0.3                      -0.3                     -3.1705138219803335E-11+5.219359653171818E-10i
-0.6                      0.3                      -0.9                     1.6125208128471673E-11+1.2606893337146897E-9i
-0.3                      0.9                      0.6                      3.9652858977773466E-11-9.485977496795015E-10i
-0.3                      1.2                      0.3                      3.5505847137682315E-11-5.219586701384113E-10i
-0.3                      0.6                      0.9                      -1.3151078358523571E-11-1.260971344934274E-9i
-0.3                      0.9                      -0.6                     -3.6782471805999754E-11+9.480414288974972E-10i
-0.3                      1.2                      -0.3                     -3.244002987938581E-11+5.217502580581698E-10i
-0.3                      0.6                      -0.9                     1.6000498447439286E-11+1.2603338544248459E-9i
-1.5                      0.3                      0                        2.4113146890368386E-12+1.3412215939989371E-14i
-0.3                      1.5                      0                        2.1034942183689058E-12-2.0261571361191386E-13i
-0.3                      0.3                      1.2                      -1.2542908561971431E-10-1.464366583648595E-9i
-0.3                      0.3                      -1.2                     1.2861382642921532E-10+1.464050180920916E-9i
0.9                       -0.9                     0                        2.5238183089729478E-12-2.2364553930949613E-12i
0.9                       -0.6                     0.3                      4.555436850273224E-11-5.067827167057985E-10i
0.9                       -0.6                     -0.3                     -4.081687681630593E-11+5.024418556530861E-10i
0.6                       -0.9                     0.3                      4.531211957541844E-11-5.065596078434003E-10i
0.6                       -0.9                     -0.3                     -4.1039498477527744E-11+5.027104053131217E-10i
1.2                       -0.6                     0                        2.184908330059856E-12-2.066345159362994E-12i
0.6                       -1.2                     0                        2.6905154751036306E-12-2.298368332041094E-12i
0.6                       -0.6                     0.6                      4.0976149457141996E-11-9.254619051570708E-10i
0.6                       -0.6                     -0.6                     -3.673374647168773E-11+9.217120678907481E-10i
0.9                       -0.3                     0.6                      3.980976297433837E-11-9.501803119551142E-10i
1.2                       -0.3                     0.3                      3.56296952099066E-11-5.234160711992525E-10i
0.6                       -0.3                     0.9                      -1.2974605717687032E-11-1.2621617496000514E-9i
0.9                       -0.3                     -0.6                     -3.5685583113666065E-11+9.464050373533331E-10i
1.2                       -0.3                     -0.3                     -3.1250892186991525E-11+5.198194543663049E-10i
0.6                       -0.3                     -0.9                     1.7262845602758526E-11+1.2588485392374798E-9i
0.3                       -0.9                     0.6                      3.9590584984927675E-11-9.494692305645581E-10i
0.3                       -1.2                     0.3                      3.5612869239756545E-11-5.229352148758121E-10i
0.3                       -0.6                     0.9                      -1.3103407792328413E-11-1.2619770555123512E-9i
0.3                       -0.9                     -0.6                     -3.4473895342816524E-11+9.460363729277182E-10i
0.3                       -1.2                     -0.3                     -3.0606814219138065E-11+5.19915372938585E-10i
0.3                       -0.6                     -0.9                     1.7965612676142668E-11+1.2583360556778887E-9i
1.5                       -0.3                     0                        2.56000570107143E-12-1.802108848657134E-12i
0.3                       -1.5                     0                        3.0807463589816217E-12-1.6408317557456783E-12i
0.3                       -0.3                     1.2                      -1.2574437192862785E-10-1.4651119954830741E-9i
0.3                       -0.3                     -1.2                     1.2982342347816798E-10+1.463088015270714E-9i
-0.9                      -0.9                     0                        3.008276396743563E-12+2.7209933508280704E-13i
-0.9                      -0.6                     0.3                      4.636119278178444E-11-5.048054725422503E-10i
-0.9                      -0.6                     -0.3                     -4.0727041514050993E-11+5.052163820214395E-10i
-0.6                      -0.9                     0.3                      4.62743599744401E-11-5.047285517034489E-10i
-0.6                      -0.9                     -0.3                     -4.0659465596026043E-11+5.048930795014847E-10i
-1.2                      -0.6                     0                        2.916933069623288E-12+4.634808082728357E-13i
-0.6                      -1.2                     0                        3.0407686966423748E-12+1.4095123972324745E-14i
-0.6                      -0.6                     0.6                      4.187250212532324E-11-9.237184265574633E-10i
-0.6                      -0.6                     -0.6                     -3.672392205049786E-11+9.237090867138907E-10i
-0.9                      -0.3                     0.6                      4.046097565871037E-11-9.483471841445169E-10i
-1.2                      -0.3                     0.3                      3.627716617784812E-11-5.215127836371634E-10i
-0.6                      -0.3                     0.9                      -1.2560608389852522E-11-1.2609699131140294E-9i
-0.9                      -0.3                     -0.6                     -3.563734061213122E-11+9.488316999690174E-10i
-1.2                      -0.3                     -0.3                     -3.110494749515141E-11+5.221026812147232E-10i
-0.6                      -0.3                     -0.9                     1.7283312595691578E-11+1.2603888375333144E-9i
-0.3                      -0.9                     0.6                      4.039815767120548E-11-9.483796841288007E-10i
-0.3                      -1.2                     0.3                      3.6852347050529955E-11-5.224513469879974E-10i
-0.3                      -0.6                     0.9                      -1.2818965296451718E-11-1.2605886406735471E-9i
-0.3                      -0.9                     -0.6                     -3.479659628347716E-11+9.474225058373184E-10i
-0.3                      -1.2                     -0.3                     -3.034021902412081E-11+5.210805529542713E-10i
-0.3                      -0.6                     -0.9                     1.7702064135447785E-11+1.2597655124618474E-9i
-1.5                      -0.3                     0                        3.0605500255498808E-12+2.1219846067193465E-13i
-0.3                      -1.5                     0                        3.1029601736374147E-12-4.4955687800510614E-13i
-0.3                      -0.3                     1.2                      -1.2520536033959583E-10-1.4645696157164526E-9i
-0.3                      -0.3                     -1.2                     1.2983612660639327E-10+1.4638991614585844E-9i
0.9                       0                        0.9                      9.27568602632314E-12-1.3491815673898564E-9i
1.2                       0                        0.6                      4.2222263244186856E-11-1.0159233484124251E-9i
0.6                       0                        1.2                      -1.0254793808528051E-10-1.525839908387102E-9i
1.5                       0                        0.3                      2.5785988256414412E-11-5.519784102226413E-10i
0.3                       0                        1.5                      -2.7977584955539705E-10-1.582736001995754E-9i
-0.9                      0                        0.9                      9.610066224491537E-12-1.3481746601156E-9i
-1.2                      0                        0.6                      4.304402477390496E-11-1.0151494126097722E-9i
-0.6                      0                        1.2                      -1.0217504172688201E-10-1.525928972444115E-9i
-1.5                      0                        0.3                      2.67249325975721E-11-5.510679595836126E-10i
-0.3                      0                        1.5                      -2.7953904412824866E-10-1.582548964582296E-9i
0.9                       0                        -0.9                     -6.120436027293725E-12+1.346842583844615E-9i
1.2                       0                        -0.6                     -3.89988936831287E-11+1.013871763592235E-9i
0.6                       0                        -1.2                     1.059906218094794E-10+1.5237921172310972E-9i
1.5                       0                        -0.3                     -2.2020534586856798E-11+5.499355138168364E-10i
0.3                       0                        -1.5                     2.838529353778489E-10+1.5813377888441149E-9i
-0.9                      0                        -0.9                     -5.7907788957527174E-12+1.3485500789273742E-9i
-1.2                      0                        -0.6                     -3.8499613583234296E-11+1.015506633211655E-9i
-0.6                      0                        -1.2                     1.0637644847836432E-10+1.5251556281382384E-9i
-1.5                      0                        -0.3                     -2.1866911668423988E-11+5.515940244966744E-10i
-0.3                      0                        -1.5                     2.836254214820745E-10+1.5822463002800919E-9i
0                         0.9                      0.9                      8.922276269926688E-12-1.3491166354757995E-9i
0                         1.2                      0.6                      4.208680647784083E-11-1.0153473223603407E-9i
0                         0.6                      1.2                      -1.0308662068117384E-10-1.5254111975142492E-9i
0                         1.5                      0.3                      2.5803129411524078E-11-5.510856267627894E-10i
0                         0.3                      1.5                      -2.797603201387164E-10-1.5826741790325807E-9i
0                         -0.9                     0.9                      9.867323800519714E-12-1.3487416802058895E-9i
0                         -1.2                     0.6                      4.2493574608449426E-11-1.015268733467135E-9i
0                         -0.6                     1.2                      -1.0241834800569875E-10-1.5253710738541441E-9i
0                         -1.5                     0.3                      2.6415492079373078E-11-5.517709371210067E-10i
0                         -0.3                     1.5                      -2.796153947777081E-10-1.582980564610852E-9i
0                         0.9                      -0.9                     -7.256284891579332E-12+1.3484918657761112E-9i
0                         1.2                      -0.6                     -3.975192442054301E-11+1.0153498139380468E-9i
0                         0.6                      -1.2                     1.0522759416420974E-10+1.5249563610914785E-9i
0                         1.5                      -0.3                     -2.2828634707250145E-11+5.51156308876105E-10i
0                         0.3                      -1.5                     2.830624182749108E-10+1.5821994920658503E-9i
0                         -0.9                     -0.9                     -4.158664360097123E-12+1.3460679449597433E-9i
0                         -1.2                     -0.6                     -3.7499040464411296E-11+1.0135061372475924E-9i
0                         -0.6                     -1.2                     1.0743585497386824E-10+1.5241025799185575E-9i
0                         -1.5                     -0.3                     -2.056414785593816E-11+5.498832918388024E-10i
0                         -0.3                     -1.5                     2.8449351526807705E-10+1.5812097330080624E-9i
1.2                       1.2                      0                        2.966326626472531E-13+3.3207042455504566E-13i
1.2                       0.9                      0.3                      1.0552717132068957E-10-5.800858633735626E-10i
1.2                       0.9                      -0.3                     -1.0304975159835374E-10+5.803352702155681E-10i
0.9                       1.2                      0.3                      1.0501664355457605E-10-5.799681326650721E-10i
0.9                       1.2                      -0.3                     -1.0288156664707012E-10+5.801005517180281E-10i
1.5                       0.9                      0                        1.3263588423947764E-12+4.5802495695416207E-14i
0.9                       1.5                      0                        1.3783756158073814E-12-9.440321897899223E-15i
0.9                       0.9                      0.6                      1.435468458164805E-10-1.0543074650732843E-9i
0.9                       0.9                      -0.6                     -1.419423922950587E-10+1.0552845768323909E-9i
1.2                       0.6                      0.6                      1.1667799455998708E-10-1.0699689848395351E-9i
1.5                       0.6                      0.3                      6.747676356206546E-11-5.830028208707254E-10i
0.9                       0.6                      0.9                      9.748799672008234E-11-1.4265270806798933E-9i
1.2                       0.6                      -0.6                     -1.1445325348480103E-10+1.070478492641586E-9i
1.5                       0.6                      -0.3                     -6.521672345050333E-11+5.831564283273205E-10i
0.9                       0.6                      -0.9                     -9.611955427676772E-11+1.427440898509714E-9i
0.6                       1.2                      0.6                      1.1678253016698433E-10-1.0699333955311393E-9i
0.6                       1.5                      0.3                      6.786357689523919E-11-5.831449617578958E-10i
0.6                       0.9                      0.9                      9.734334544055828E-11-1.4261909289976757E-9i