% Model:              Untitled.mph
% Version:            COMSOL 5.5.0.359
% Date:               Oct 10 2022, 17:18
% Dimension:          3
% Nodes:              665
% Expressions:        1
% Description:        Electric potential
% Length unit:        nm
% x                       y                        z                        V (V)
0                         0                        0                        -5.729033313576222E-14+4.8054299358724005E-14i
0.3                       0.3                      0                        -4.973102511129317E-14+4.241030662578484E-14i
-0.3                      0.3                      0                        -9.284964488701806E-15+5.273836798998698E-14i
0.3                       -0.3                     0                        -1.168290414567852E-13+4.271197342834937E-14i
-0.3                      -0.3                     0                        -9.414864984645095E-14+5.307294451629527E-14i
0.3                       0                        0.3                      -9.507139105130938E-11-5.857206635151016E-12i
-0.3                      0                        0.3                      -9.50380060389665E-11-5.848985693132359E-12i
0.3                       0                        -0.3                     9.493736632464055E-11+5.944138040821571E-12i
-0.3                      0                        -0.3                     9.494495128471018E-11+5.955073694756039E-12i
0                         0.3                      0.3                      -9.504394440912807E-11-5.856083598648504E-12i
0                         -0.3                     0.3                      -9.511468459339958E-11-5.853775853862552E-12i
0                         0.3                      -0.3                     9.492080095186132E-11+5.945998500848228E-12i
0                         -0.3                     -0.3                     9.487910405089902E-11+5.9472713286372104E-12i
0.6                       0                        0                        -1.4309115811095404E-13+3.4972719623340593E-14i
-0.6                      0                        0                        -1.7361511958629175E-14+5.909068801458348E-14i
0                         0.6                      0                        -6.114144846403295E-14+4.3229521552537654E-14i
0                         -0.6                     0                        -1.44140331059948E-13+4.762333177549787E-14i
0                         0                        0.6                      -1.8277537410050102E-10-1.1236480620845231E-11i
0                         0                        -0.6                     1.826267156417438E-10+1.1329561372517695E-11i
0.6                       0.6                      0                        -7.055489108994642E-14+3.549898626979873E-14i
0.6                       0.3                      0.3                      -9.994933531780565E-11-6.211754692026099E-12i
0.6                       0.3                      -0.3                     9.974985361741837E-11+6.282441468206343E-12i
0.3                       0.6                      0.3                      -9.989808388218627E-11-6.209031698982385E-12i
0.3                       0.6                      -0.3                     9.97960094427996E-11+6.288224536276894E-12i
0.9                       0.3                      0                        -1.1312971102919752E-13+3.199411182786432E-14i
0.3                       0.9                      0                        -5.720993357794562E-14+3.733215027397857E-14i
0.3                       0.3                      0.6                      -1.877819174020408E-10-1.160092930480784E-11i
0.3                       0.3                      -0.6                     1.876143130833065E-10+1.167931389837875E-11i
-0.6                      0.6                      0                        5.018353674465679E-14+5.856724907673671E-14i
-0.6                      0.3                      0.3                      -9.985821373888255E-11-6.19515261366943E-12i
-0.6                      0.3                      -0.3                     9.989843729126204E-11+6.312559661335645E-12i
-0.3                      0.6                      0.3                      -9.987905864595005E-11-6.202757013412885E-12i
-0.3                      0.6                      -0.3                     9.982325695864788E-11+6.300911933784183E-12i
-0.9                      0.3                      0                        3.0353209992614426E-14+6.267848150430116E-14i
-0.3                      0.9                      0                        3.742508848261922E-14+5.187661669726564E-14i
-0.3                      0.3                      0.6                      -1.8779033181259822E-10-1.1598523752708477E-11i
-0.3                      0.3                      -0.6                     1.877673157699116E-10+1.1703066313462744E-11i
0.6                       -0.6                     0                        -1.7047084727176272E-13+3.65196139282841E-14i
0.6                       -0.3                     0.3                      -9.99818770934819E-11-6.207718065876663E-12i
0.6                       -0.3                     -0.3                     9.96700571225629E-11+6.279512747313472E-12i
0.3                       -0.6                     0.3                      -9.994627317712041E-11-6.199868558134853E-12i
0.3                       -0.6                     -0.3                     9.969263316242199E-11+6.2873619709484685E-12i
0.9                       -0.3                     0                        -9.106915530414124E-14+3.774816199609031E-14i
0.3                       -0.9                     0                        -1.6513824127078485E-13+4.2627363638539375E-14i
0.3                       -0.3                     0.6                      -1.8780005178892904E-10-1.1593986264609111E-11i
0.3                       -0.3                     -0.6                     1.875233148690701E-10+1.1675288356024002E-11i
-0.6                      -0.6                     0                        -3.62527214563703E-14+6.485554935674941E-14i
-0.6                      -0.3                     0.3                      -9.988046109118719E-11-6.187838445110509E-12i
-0.6                      -0.3                     -0.3                     9.979334511723318E-11+6.3099424098420504E-12i
-0.3                      -0.6                     0.3                      -9.99576869009085E-11-6.19293158519408E-12i
-0.3                      -0.6                     -0.3                     9.971127760894071E-11+6.3010202805575974E-12i
-0.9                      -0.3                     0                        -2.9560690667072335E-14+6.572870239741786E-14i
-0.3                      -0.9                     0                        -1.010263954358924E-13+5.812808352528142E-14i
-0.3                      -0.3                     0.6                      -1.8779304076893542E-10-1.1588318911435576E-11i
-0.3                      -0.3                     -0.6                     1.8763908384034866E-10+1.1696826948649638E-11i
0.6                       0                        0.6                      -1.9241187439672194E-10-1.1921147035052569E-11i
0.9                       0                        0.3                      -1.0384579804033684E-10-6.474014445551668E-12i
0.3                       0                        0.9                      -2.6550529268745367E-10-1.6263949998046684E-11i
-0.6                      0                        0.6                      -1.9236604806420945E-10-1.1910618707239326E-11i
-0.9                      0                        0.3                      -1.0375690528042537E-10-6.452856398771344E-12i
-0.3                      0                        0.9                      -2.65446711257926E-10-1.625716806541715E-11i
0.6                       0                        -0.6                     1.9220263054604446E-10+1.1994931199346762E-11i
0.9                       0                        -0.3                     1.0361775272022601E-10+6.5421205151847244E-12i
0.3                       0                        -0.9                     2.6532889869065944E-10+1.6346371299619813E-11i
-0.6                      0                        -0.6                     1.9230676903668396E-10+1.2027651575755733E-11i
-0.9                      0                        -0.3                     1.0374218151370577E-10+6.579264962467364E-12i
-0.3                      0                        -0.9                     2.6545544806359896E-10+1.6370239544261142E-11i
0                         0.6                      0.6                      -1.9238343679112314E-10-1.1924470932073251E-11i
0                         0.9                      0.3                      -1.0377793686626429E-10-6.4713374957435616E-12i
0                         0.3                      0.9                      -2.6558512138361786E-10-1.627398444253026E-11i
0                         -0.6                     0.6                      -1.924403001653637E-10-1.1911469957151021E-11i
0                         -0.9                     0.3                      -1.0391976069520364E-10-6.4633060802883894E-12i
0                         -0.3                     0.9                      -2.655073618436483E-10-1.625778895563851E-11i
0                         0.6                      -0.6                     1.9238537841188626E-10+1.2017474686462501E-11i
0                         0.9                      -0.3                     1.0377045322543372E-10+6.561455370643641E-12i
0                         0.3                      -0.9                     2.6533446521628776E-10+1.6353732429013993E-11i
0                         -0.6                     -0.6                     1.9216912818391196E-10+1.2007429117399151E-11i
0                         -0.9                     -0.3                     1.0359971372615498E-10+6.5597506658098386E-12i
0                         -0.3                     -0.9                     2.652684234751043E-10+1.6350229183392062E-11i
1.2                       0                        0                        -1.9859096416926786E-13+2.663326506281796E-14i
-1.2                      0                        0                        2.052188837832836E-14+6.780759385360469E-14i
0                         1.2                      0                        -3.249461830959906E-14+4.098331231344304E-14i
0                         -1.2                     0                        -1.5493695483441923E-13+5.009888402138694E-14i
0                         0                        1.2                      -3.2577661319218814E-10-1.9688787366125736E-11i
0                         0                        -1.2                     3.256042080503799E-10+1.9779628491730133E-11i
0.9                       0.9                      0                        -4.321096447935185E-14+3.1592788171376886E-14i
0.9                       0.6                      0.3                      -1.0993019436008985E-10-6.942833240689227E-12i
0.9                       0.6                      -0.3                     1.0970034646522315E-10+7.000890711949402E-12i
0.6                       0.9                      0.3                      -1.0985000741041176E-10-6.938502176197842E-12i
0.6                       0.9                      -0.3                     1.0976859835256973E-10+7.00678305033966E-12i
1.2                       0.6                      0                        -1.230045721415586E-13+2.731599914659797E-14i
0.6                       1.2                      0                        -3.1316531396660707E-14+3.296223685444399E-14i
0.6                       0.6                      0.6                      -2.0333685847372882E-10-1.2736208181405837E-11i
0.6                       0.6                      -0.6                     2.0317879397068953E-10+1.2802509209191642E-11i
0.9                       0.3                      0.6                      -2.0669431971124267E-10-1.2940404699034416E-11i
1.2                       0.3                      0.3                      -1.1183813586142864E-10-7.035324811150356E-12i
0.6                       0.3                      0.9                      -2.808977963495703E-10-1.737252911625799E-11i
0.9                       0.3                      -0.6                     2.064449615222861E-10+1.3000364636955461E-11i
1.2                       0.3                      -0.3                     1.1158438574274403E-10+7.094107170677797E-12i
0.6                       0.3                      -0.9                     2.8072518936611E-10+1.7441880711789434E-11i
0.3                       0.9                      0.6                      -2.0663259985074502E-10-1.2940053973592992E-11i
0.3                       1.2                      0.3                      -1.1171676378460651E-10-7.029399446235884E-12i
0.3                       0.6                      0.9                      -2.808036715488487E-10-1.7369073999860238E-11i
0.3                       0.9                      -0.6                     2.0659558446820987E-10+1.3018038794699584E-11i
0.3                       1.2                      -0.3                     1.1171763489134723E-10+7.107333640614242E-12i
0.3                       0.6                      -0.9                     2.8075773477106687E-10+1.744968822365194E-11i
1.5                       0.3                      0                        -1.752849776193297E-13+2.5504426265330642E-14i
0.3                       1.5                      0                        -7.877764354082332E-14+3.228034230142916E-14i
0.3                       0.3                      1.2                      -3.356326956331278E-10-2.039950849645768E-11i
0.3                       0.3                      -1.2                     3.3553392241617897E-10+2.0481551950977287E-11i
-0.9                      0.9                      0                        1.0668753084859184E-13+6.5614265439718E-14i
-0.9                      0.6                      0.3                      -1.0976585169638639E-10-6.9177483065874535E-12i
-0.9                      0.6                      -0.3                     1.0984611251008189E-10+7.041984505494414E-12i
-0.6                      0.9                      0.3                      -1.0971467088288872E-10-6.918508427935663E-12i
-0.6                      0.9                      -0.3                     1.0989362020149853E-10+7.040057723927273E-12i
-1.2                      0.6                      0                        1.472912415354117E-13+7.27073363045794E-14i
-0.6                      1.2                      0                        7.033313880309215E-14+5.817237384256162E-14i
-0.6                      0.6                      0.6                      -2.0322294553978217E-10-1.272288391197856E-11i
-0.6                      0.6                      -0.6                     2.0330880296261625E-10+1.2839944831599887E-11i
-0.9                      0.3                      0.6                      -2.0658402039175454E-10-1.2924105643729736E-11i
-1.2                      0.3                      0.3                      -1.1169719119222186E-10-7.008619106519699E-12i
-0.6                      0.3                      0.9                      -2.807942687479743E-10-1.7362057193679155E-11i
-0.9                      0.3                      -0.6                     2.0669601525413475E-10+1.3054995969785315E-11i
-1.2                      0.3                      -0.3                     1.1179488945134378E-10+7.142350668930455E-12i
-0.6                      0.3                      -0.9                     2.808692962039572E-10+1.7482543296066942E-11i
-0.3                      0.9                      0.6                      -2.0656507066683713E-10-1.2933502615024065E-11i
-0.3                      1.2                      0.3                      -1.1170555975669212E-10-7.023635108398566E-12i
-0.3                      0.6                      0.9                      -2.807746713160797E-10-1.7366702804491077E-11i
-0.3                      0.9                      -0.6                     2.0665881829422053E-10+1.3039468507578295E-11i
-0.3                      1.2                      -0.3                     1.1180133349134918E-10+7.127091603569563E-12i
-0.3                      0.6                      -0.9                     2.80830058897218E-10+1.7472493638625587E-11i
-1.5                      0.3                      0                        2.4947988211736312E-14+6.586354220090507E-14i
-0.3                      1.5                      0                        -2.3098780118693668E-15+4.731563056196758E-14i
-0.3                      0.3                      1.2                      -3.356092714587052E-10-2.0398584581097316E-11i
-0.3                      0.3                      -1.2                     3.3564338937405687E-10+2.0506878206653892E-11i
0.9                       -0.9                     0                        -1.8471930283162204E-13+3.3455064438736626E-14i
0.9                       -0.6                     0.3                      -1.0997956345196445E-10-6.934993984630005E-12i
0.9                       -0.6                     -0.3                     1.0954522273582356E-10+6.994700856381377E-12i
0.6                       -0.9                     0.3                      -1.0993241315371078E-10-6.927431386135515E-12i
0.6                       -0.9                     -0.3                     1.096252219518794E-10+7.0057204250798754E-12i
1.2                       -0.6                     0                        -1.734648243808027E-13+3.22546592833429E-14i
0.6                       -1.2                     0                        -2.243935270908606E-13+3.473482945151667E-14i
0.6                       -0.6                     0.6                      -2.0341142432970403E-10-1.272548500221556E-11i
0.6                       -0.6                     -0.6                     2.030582571377611E-10+1.2796585944728246E-11i
0.9                       -0.3                     0.6                      -2.0676971129955722E-10-1.2937216548262756E-11i
1.2                       -0.3                     0.3                      -1.1187087073435321E-10-7.0309860009324E-12i
0.6                       -0.3                     0.9                      -2.8093223070495613E-10-1.7364976112922573E-11i
0.9                       -0.3                     -0.6                     2.0635837388002053E-10+1.2994807657764179E-11i
1.2                       -0.3                     -0.3                     1.1146213705728597E-10+7.086748962922436E-12i
0.6                       -0.3                     -0.9                     2.805541408883506E-10+1.7429388991604215E-11i
0.3                       -0.9                     0.6                      -2.067067826800723E-10-1.2923946842100426E-11i
0.3                       -1.2                     0.3                      -1.1181013578669888E-10-7.015059753559302E-12i
0.3                       -0.6                     0.9                      -2.8093395587154047E-10-1.7359797523944748E-11i
0.3                       -0.9                     -0.6                     2.0631014245692128E-10+1.3003093525241183E-11i
0.3                       -1.2                     -0.3                     1.1150704913382435E-10+7.104538690483588E-12i
0.3                       -0.6                     -0.9                     2.8049902807366575E-10+1.743323965255812E-11i
1.5                       -0.3                     0                        -2.2852860814859745E-13+2.613194976999979E-14i
0.3                       -1.5                     0                        -2.1909027718254347E-13+4.0148705772454067E-14i
0.3                       -0.3                     1.2                      -3.356765971463956E-10-2.0391802625308464E-11i
0.3                       -0.3                     -1.2                     3.3545433097007665E-10+2.0476007159637126E-11i
-0.9                      -0.9                     0                        -5.0228458305772424E-14+7.119956495547817E-14i
-0.9                      -0.6                     0.3                      -1.0984617994290544E-10-6.905563350575614E-12i
-0.9                      -0.6                     -0.3                     1.0978138008234295E-10+7.044031979756911E-12i
-0.6                      -0.9                     0.3                      -1.0983402262145926E-10-6.9046820976391304E-12i
-0.6                      -0.9                     -0.3                     1.0975320545485331E-10+7.040181493059464E-12i
-1.2                      -0.6                     0                        -1.6620027496066772E-14+7.257128880899126E-14i
-0.6                      -1.2                     0                        -8.04246310132638E-14+6.671726888539411E-14i
-0.6                      -0.6                     0.6                      -2.0326359537902208E-10-1.2704165733137763E-11i
-0.6                      -0.6                     -0.6                     2.0321168161094448E-10+1.2836398945835921E-11i
-0.9                      -0.3                     0.6                      -2.0659354628412847E-10-1.2912679762013045E-11i
-1.2                      -0.3                     0.3                      -1.116954798751525E-10-6.99858728300044E-12i
-0.6                      -0.3                     0.9                      -2.808062058781816E-10-1.7349037048655714E-11i
-0.9                      -0.3                     -0.6                     2.066170167425509E-10+1.3050080540652611E-11i
-1.2                      -0.3                     -0.3                     1.1168921275913893E-10+7.138386062559549E-12i
-0.6                      -0.3                     -0.9                     2.80701790234421E-10+1.7470212040963818E-11i
-0.3                      -0.9                     0.6                      -2.0661349863195902E-10-1.2911127405462043E-11i
-0.3                      -1.2                     0.3                      -1.1188303696176358E-10-7.0122775768895785E-12i
-0.3                      -0.6                     0.9                      -2.8076173328598437E-10-1.7342809830522217E-11i
-0.3                      -0.9                     -0.6                     2.064353304456021E-10+1.3029066655224531E-11i
-0.3                      -1.2                     -0.3                     1.1155342593460187E-10+7.121964523629269E-12i
-0.3                      -0.6                     -0.9                     2.806413787517585E-10+1.7460086977972577E-11i
-1.5                      -0.3                     0                        -3.9490043664496355E-14+6.727630105844401E-14i
-0.3                      -1.5                     0                        -1.2496399241345666E-13+5.864829454986038E-14i
-0.3                      -0.3                     1.2                      -3.35648553626881E-10-2.0387676687870828E-11i
-0.3                      -0.3                     -1.2                     3.3552835429395636E-10+2.0497739996618946E-11i
0.9                       0                        0.9                      -2.944192641430508E-10-1.8281349295185994E-11i
1.2                       0                        0.6                      -2.1677782500805375E-10-1.3583636411266204E-11i
0.6                       0                        1.2                      -3.4544955518172684E-10-2.107855413250666E-11i
1.5                       0                        0.3                      -1.1601055898122265E-10-7.273306207076722E-12i
0.3                       0                        1.5                      -3.759522898541541E-10-2.239226282832724E-11i
-0.9                      0                        0.9                      -2.94346360868002E-10-1.827075594861555E-11i
-1.2                      0                        0.6                      -2.167031585840964E-10-1.3567377781911831E-11i
-0.6                      0                        1.2                      -3.454711901018066E-10-2.1077193808978382E-11i
-1.5                      0                        0.3                      -1.1591832428774198E-10-7.248787273133006E-12i
-0.3                      0                        1.5                      -3.75940689945557E-10-2.23905603386529E-11i
0.9                       0                        -0.9                     2.941665339583748E-10+1.8345085417947383E-11i
1.2                       0                        -0.6                     2.1653586222008612E-10+1.3646666567124735E-11i
0.6                       0                        -1.2                     3.451987175258132E-10+2.1147444970981804E-11i
1.5                       0                        -0.3                     1.157175152374853E-10+7.33393125503899E-12i
0.3                       0                        -1.5                     3.757286170715435E-10+2.2470317703231326E-11i
-0.9                      0                        -0.9                     2.943977828082821E-10+1.8402673110431967E-11i
-1.2                      0                        -0.6                     2.167574024273709E-10+1.3703949850628674E-11i
-0.6                      0                        -1.2                     3.4536952007623033E-10+2.119079344107397E-11i
-1.5                      0                        -0.3                     1.15985400087183E-10+7.387907892180022E-12i
-0.3                      0                        -1.5                     3.758878927563347E-10+2.2498934941131726E-11i
0                         0.9                      0.9                      -2.943796477425792E-10-1.8289998366014465E-11i
0                         1.2                      0.6                      -2.1672485716981414E-10-1.3589506301776484E-11i
0                         0.6                      1.2                      -3.4535939737175504E-10-2.1082011607949847E-11i
0                         1.5                      0.3                      -1.1590835683681602E-10-7.27056168613759E-12i
0                         0.3                      1.5                      -3.759466817531567E-10-2.2397508558306612E-11i
0                         -0.9                     0.9                      -2.9452827936250886E-10-1.827478698336753E-11i
0                         -1.2                     0.6                      -2.1676141219288502E-10-1.3564970445838922E-11i
0                         -0.6                     1.2                      -3.454676337674993E-10-2.106855465997764E-11i
0                         -1.5                     0.3                      -1.1601338817556199E-10-7.254541239451127E-12i
0                         -0.3                     1.5                      -3.759880444733254E-10-2.2388378761195827E-11i
0                         0.9                      -0.9                     2.9447061842205226E-10+1.838661026700252E-11i
0                         1.2                      -0.6                     2.1678667863861868E-10+1.3680209167921698E-11i
0                         0.6                      -1.2                     3.4538642495904766E-10+2.117701689611168E-11i
0                         1.5                      -0.3                     1.1594108229769313E-10+7.359150043521014E-12i
0                         0.3                      -1.5                     3.758793822001875E-10+2.2489957968861784E-11i
0                         -0.9                     -0.9                     2.9414463479574853E-10+1.836618228636547E-11i
0                         -1.2                     -0.6                     2.1654361670003055E-10+1.3672520194512263E-11i
0                         -0.6                     -1.2                     3.452506337363117E-10+2.1167009724697392E-11i
0                         -1.5                     -0.3                     1.1571959002021889E-10+7.357203023309651E-12i
0                         -0.3                     -1.5                     3.7574053409306454E-10+2.2480185152806557E-11i
1.2                       1.2                      0                        -3.888497141937064E-14+2.9615636107731175E-14i
1.2                       0.9                      0.3                      -1.253188594563187E-10-8.087154572509252E-12i
1.2                       0.9                      -0.3                     1.2509702731622516E-10+8.136455900022368E-12i
0.9                       1.2                      0.3                      -1.2524866310045704E-10-8.082517266397935E-12i
0.9                       1.2                      -0.3                     1.2505598717107852E-10+8.133062356480786E-12i
1.5                       0.9                      0                        -1.1420760392216735E-13+2.5203880214126174E-14i
0.9                       1.5                      0                        -1.196020854700265E-13+2.2780398662306938E-14i
0.9                       0.9                      0.6                      -2.3083014026510492E-10-1.478291068038787E-11i
0.9                       0.9                      -0.6                     2.306766192363929E-10+1.483834572721914E-11i
1.2                       0.6                      0.6                      -2.3101155213418806E-10-1.471400191222952E-11i
1.5                       0.6                      0.3                      -1.235335554555508E-10-7.873304022838782E-12i
0.9                       0.6                      0.9                      -3.1379465425942464E-10-1.9789627408210926E-11i
1.2                       0.6                      -0.6                     2.308513493393176E-10+1.4771178531492833E-11i
1.5                       0.6                      -0.3                     1.2337728093850054E-10+7.933889011180173E-12i
0.9                       0.6                      -0.9                     3.1368377010584235E-10+1.9852795353104313E-11i
0.6                       1.2                      0.6                      -2.3103211119374474E-10-1.4718883640207095E-11i
0.6                       1.5                      0.3                      -1.235538537404648E-10-7.877888053647057E-12i