% Model:              Untitled.mph
% Version:            COMSOL 5.5.0.359
% Date:               Oct 10 2022, 17:21
% Dimension:          3
% Nodes:              665
% Expressions:        1
% Description:        Electric potential
% Length unit:        nm
% x                       y                        z                        V (V)
0                         0                        0                        -5.822736788238938E-13-8.038395843849138E-13i
0.3                       0.3                      0                        -4.6284585375252E-13-1.2195773414899837E-12i
-0.3                      0.3                      0                        -2.759766081169255E-13-8.748287122890943E-14i
0.3                       -0.3                     0                        -9.782052774432539E-13-1.364107363806001E-12i
-0.3                      -0.3                     0                        -7.204540191470143E-13-5.644030527385893E-13i
0.3                       0                        0.3                      -2.2628852265860926E-10-6.501078795247171E-11i
-0.3                      0                        0.3                      -2.2594345308662043E-10-6.459225139533369E-11i
0.3                       0                        -0.3                     2.2492544563850298E-10+6.243883948187337E-11i
-0.3                      0                        -0.3                     2.2497019529486788E-10+6.393602009600641E-11i
0                         0.3                      0.3                      -2.2588098547209834E-10-6.496408839577938E-11i
0                         -0.3                     0.3                      -2.2648195911385614E-10-6.467937893600979E-11i
0                         0.3                      -0.3                     2.2496598366663172E-10+6.358937633992664E-11i
0                         -0.3                     -0.3                     2.2470962139471149E-10+6.271259538145479E-11i
0.6                       0                        0                        -9.505313847053194E-13-1.7591849286538787E-12i
-0.6                      0                        0                        -3.536675068708415E-13+9.373099287045035E-14i
0                         0.6                      0                        -3.3185864048539114E-13-5.671012719357571E-13i
0                         -0.6                     0                        -1.0712949891304223E-12-1.0980891634835878E-12i
0                         0                        0.6                      -4.315958742321795E-10-1.21512533655354E-10i
0                         0                        -0.6                     4.303199008219457E-10+1.1983585828834518E-10i
0.6                       0.6                      0                        -3.664580739946679E-13-1.8051387558043657E-12i
0.6                       0.3                      0.3                      -2.3966458095550125E-10-7.053704002922385E-11i
0.6                       0.3                      -0.3                     2.384087331595667E-10+6.694250861234723E-11i
0.3                       0.6                      0.3                      -2.3923774038905727E-10-7.044904787835295E-11i
0.3                       0.6                      -0.3                     2.3861980248603517E-10+6.798561570337549E-11i
0.9                       0.3                      0                        -6.960365960213602E-13-2.171446567048864E-12i
0.3                       0.9                      0                        -2.078429514338325E-13-1.2058291660046478E-12i
0.3                       0.3                      0.6                      -4.4536364277711517E-10-1.271231143607634E-10i
0.3                       0.3                      -0.6                     4.442765390175458E-10+1.2449823739604443E-10i
-0.6                      0.6                      0                        6.1989779211210116E-15+8.050248731150092E-13i
-0.6                      0.3                      0.3                      -2.3899233570925054E-10-6.9473609626028E-11i
-0.6                      0.3                      -0.3                     2.386761437258657E-10+7.042490799795952E-11i
-0.3                      0.6                      0.3                      -2.3898194991855103E-10-6.980130682783803E-11i
-0.3                      0.6                      -0.3                     2.3853881980022797E-10+7.010093379389606E-11i
-0.9                      0.3                      0                        -1.0967137474047073E-13+8.375741839739452E-13i
-0.3                      0.9                      0                        2.785156356574757E-14+3.800062339004069E-13i
-0.3                      0.3                      0.6                      -4.450467863224165E-10-1.2711644830240448E-10i
-0.3                      0.3                      -0.6                     4.4448950799544873E-10+1.2704938299216006E-10i
0.6                       -0.6                     0                        -1.4249741792839326E-12-1.7963594782565147E-12i
0.6                       -0.3                     0.3                      -2.402970659468766E-10-6.980598908142269E-11i
0.6                       -0.3                     -0.3                     2.378901435226278E-10+6.624236777851071E-11i
0.3                       -0.6                     0.3                      -2.4026872969060304E-10-6.945788795447762E-11i
0.3                       -0.6                     -0.3                     2.3790357209760043E-10+6.655390694761228E-11i
0.9                       -0.3                     0                        -1.091816418858934E-12-1.9687013599806472E-12i
0.3                       -0.9                     0                        -1.3927070613506935E-12-1.5225801802680252E-12i
0.3                       -0.3                     0.6                      -4.460411168752215E-10-1.260430418838847E-10i
0.3                       -0.3                     -0.6                     4.43880821465941E-10+1.2315026033484316E-10i
-0.6                      -0.6                     0                        -5.539379559072182E-13-3.50904509525193E-13i
-0.6                      -0.3                     0.3                      -2.394195730859521E-10-6.928279980719712E-11i
-0.6                      -0.3                     -0.3                     2.3841041489977036E-10+6.894778188249326E-11i
-0.3                      -0.6                     0.3                      -2.39910185663227E-10-6.938218348526704E-11i
-0.3                      -0.6                     -0.3                     2.381147172654464E-10+6.790087960079948E-11i
-0.9                      -0.3                     0                        -4.031529154286568E-13+1.0697392631559597E-13i
-0.3                      -0.9                     0                        -9.007814405388602E-13-8.153700291686371E-13i
-0.3                      -0.3                     0.6                      -4.4557425741137844E-10-1.262692829534495E-10i
-0.3                      -0.3                     -0.6                     4.4421388284709164E-10+1.2517733581527239E-10i
0.6                       0                        0.6                      -4.582524380120641E-10-1.3073609807839802E-10i
0.9                       0                        0.3                      -2.5008594755765E-10-7.337452141501057E-11i
0.3                       0                        0.9                      -6.235149193756516E-10-1.729533874328704E-10i
-0.6                      0                        0.6                      -4.574145454147065E-10-1.3086494723061986E-10i
-0.9                      0                        0.3                      -2.4917365747916124E-10-7.234770358799586E-11i
-0.3                      0                        0.9                      -6.228647301944057E-10-1.7329557221328006E-10i
0.6                       0                        -0.6                     4.5652674073920843E-10+1.2710707056500325E-10i
0.9                       0                        -0.3                     2.482423107593363E-10+6.921018711837356E-11i
0.3                       0                        -0.9                     6.22000244539004E-10+1.7016292114901704E-10i
-0.6                      0                        -0.6                     4.5666009212705994E-10+1.3116653408103896E-10i
-0.9                      0                        -0.3                     2.4859511914254197E-10+7.321468536477173E-11i
-0.3                      0                        -0.9                     6.221663599912651E-10+1.7280841302080292E-10i
0                         0.6                      0.6                      -4.572816366283746E-10-1.316391377697126E-10i
0                         0.9                      0.3                      -2.489867151432097E-10-7.32568767078304E-11i
0                         0.3                      0.9                      -6.231546965370357E-10-1.7390012012033804E-10i
0                         -0.6                     0.6                      -4.5850341446783297E-10-1.299730993015243E-10i
0                         -0.9                     0.3                      -2.504955751266731E-10-7.24775913953835E-11i
0                         -0.3                     0.9                      -6.236211972327322E-10-1.7249383091256979E-10i
0                         0.6                      -0.6                     4.569935836216515E-10+1.3064736423701455E-10i
0                         0.9                      -0.3                     2.488695453259492E-10+7.247622452138469E-11i
0                         0.3                      -0.9                     6.219102348928163E-10+1.7239021902316004E-10i
0                         -0.6                     -0.6                     4.56335494984044E-10+1.2771889005312256E-10i
0                         -0.9                     -0.3                     2.4802777513720024E-10+7.004572422012259E-11i
0                         -0.3                     -0.9                     6.21750251692247E-10+1.704088851407014E-10i
1.2                       0                        0                        -1.1982390143102563E-12-2.3440625178303586E-12i
-1.2                      0                        0                        -1.816936117177548E-13+6.288988037578714E-13i
0                         1.2                      0                        -1.1869731946372414E-13-4.0545016227141396E-13i
0                         -1.2                     0                        -1.265933419333825E-12-1.2519067129886454E-12i
0                         0                        1.2                      -7.531331347123723E-10-2.0258228339081122E-10i
0                         0                        -1.2                     7.517482167291036E-10+2.0079143319762434E-10i
0.9                       0.9                      0                        -1.223703051589415E-13-2.411096449126461E-12i
0.9                       0.6                      0.3                      -2.6776351109219686E-10-8.220567252723016E-11i
0.9                       0.6                      -0.3                     2.668434167311113E-10+7.741432896893163E-11i
0.6                       0.9                      0.3                      -2.673301249751132E-10-8.205881543012629E-11i
0.6                       0.9                      -0.3                     2.670788841509186E-10+7.81623566342175E-11i
1.2                       0.6                      0                        -5.041542643997128E-13-2.6134587904947914E-12i
0.6                       1.2                      0                        -2.30451564908883E-14-1.9184596290173558E-12i
0.6                       0.6                      0.6                      -4.891976658779693E-10-1.4487092344942861E-10i
0.6                       0.6                      -0.6                     4.884868211219073E-10+1.4081206764733243E-10i
0.9                       0.3                      0.6                      -4.972321799240696E-10-1.4572827025726278E-10i
1.2                       0.3                      0.3                      -2.7129321942981197E-10-8.13941928456071E-11i
0.6                       0.3                      0.9                      -6.660460813151495E-10-1.8945378166311167E-10i
0.9                       0.3                      -0.6                     4.958312408373582E-10+1.409811280258499E-10i
1.2                       0.3                      -0.3                     2.6982208573470145E-10+7.642231975585653E-11i
0.6                       0.3                      -0.9                     6.648879486223034E-10+1.8540065709165473E-10i
0.3                       0.9                      0.6                      -4.963265451254076E-10-1.4623129688845572E-10i
0.3                       1.2                      0.3                      -2.702936211831996E-10-8.11280124573969E-11i
0.3                       0.6                      0.9                      -6.652717956806118E-10-1.900018287569872E-10i
0.3                       0.9                      -0.6                     4.962331968709785E-10+1.436751435931539E-10i
0.3                       1.2                      -0.3                     2.703489581720986E-10+7.871601355500938E-11i
0.3                       0.6                      -0.9                     6.649082496146554E-10+1.8728800561788025E-10i
1.5                       0.3                      0                        -9.006384428247866E-13-2.5294549798855774E-12i
0.3                       1.5                      0                        -2.2424557504777478E-13-1.289492147805902E-12i
0.3                       0.3                      1.2                      -7.802626679875284E-10-2.130675953700491E-10i
0.3                       0.3                      -1.2                     7.793591832458443E-10+2.1022244891140938E-10i
-0.9                      0.9                      0                        2.4105246200600543E-13+1.7717219287937592E-12i
-0.9                      0.6                      0.3                      -2.66761893069929E-10-8.048274838801052E-11i
-0.9                      0.6                      -0.3                     2.6676891044047916E-10+8.326649996388935E-11i
-0.6                      0.9                      0.3                      -2.6653638995068064E-10-8.058187857418628E-11i
-0.6                      0.9                      -0.3                     2.6696597190199625E-10+8.317442919719779E-11i
-1.2                      0.6                      0                        3.2348485684529653E-13+1.7264174841907577E-12i
-0.6                      1.2                      0                        1.747284025567994E-13+1.3624455876179847E-12i
-0.6                      0.6                      0.6                      -4.881575378108978E-10-1.4469096889402809E-10i
-0.6                      0.6                      -0.6                     4.881484953991572E-10+1.4673110057866266E-10i
-0.9                      0.3                      0.6                      -4.959589209091392E-10-1.456313457114492E-10i
-1.2                      0.3                      0.3                      -2.702121448763095E-10-7.977952830246841E-11i
-0.6                      0.3                      0.9                      -6.648224340834628E-10-1.9000811935183805E-10i
-0.9                      0.3                      -0.6                     4.959174447665402E-10+1.4775643757464394E-10i
-1.2                      0.3                      -0.3                     2.7011077739435597E-10+8.205559129747866E-11i
-0.6                      0.3                      -0.9                     6.646296131215474E-10+1.9139313518161369E-10i
-0.3                      0.9                      0.6                      -4.957440025800347E-10-1.461308600836948E-10i
-0.3                      1.2                      0.3                      -2.7004588215315275E-10-8.036545229301351E-11i
-0.3                      0.6                      0.9                      -6.646700875525797E-10-1.9033165572772955E-10i
-0.3                      0.9                      -0.6                     4.959275919273075E-10+1.4731626809497016E-10i
-0.3                      1.2                      -0.3                     2.702962702311553E-10+8.158301945773325E-11i
-0.3                      0.6                      -0.9                     6.64586096628465E-10+1.9112462967776104E-10i
-1.5                      0.3                      0                        -1.2969066753666666E-13+1.0570831297768482E-12i
-0.3                      1.5                      0                        -4.929617265647698E-14+4.833073998096636E-13i
-0.3                      0.3                      1.2                      -7.796822804744936E-10-2.1364308414788805E-10i
-0.3                      0.3                      -1.2                     7.792865272723546E-10+2.137914963363051E-10i
0.9                       -0.9                     0                        -1.7614658246599102E-12-2.0647976680528074E-12i
0.9                       -0.6                     0.3                      -2.6914989558996387E-10-8.028281175936061E-11i
0.9                       -0.6                     -0.3                     2.6572874192565025E-10+7.603397967076222E-11i
0.6                       -0.9                     0.3                      -2.69044580395049E-10-7.998813471173967E-11i
0.6                       -0.9                     -0.3                     2.6595350457116475E-10+7.63666549792551E-11i
1.2                       -0.6                     0                        -1.5973631420896179E-12-2.1633524927511028E-12i
0.6                       -1.2                     0                        -1.8113879587641244E-12-1.8928463406649225E-12i
0.6                       -0.6                     0.6                      -4.907982902247046E-10-1.4201708767308418E-10i
0.6                       -0.6                     -0.6                     4.87720441846639E-10+1.3823158141366542E-10i
0.9                       -0.3                     0.6                      -4.982675065226459E-10-1.439174321441566E-10i
1.2                       -0.3                     0.3                      -2.7204943232127477E-10-8.022255830385824E-11i
0.6                       -0.3                     0.9                      -6.670266240760317E-10-1.8736937006758705E-10i
0.9                       -0.3                     -0.6                     4.952824324415155E-10+1.395061725003544E-10i
1.2                       -0.3                     -0.3                     2.6906548651069503E-10+7.563419570605668E-11i
0.6                       -0.3                     -0.9                     6.642027617404023E-10+1.8339785706677282E-10i
0.3                       -0.9                     0.6                      -4.982375212618984E-10-1.4326413389278972E-10i
0.3                       -1.2                     0.3                      -2.7201448582517346E-10-7.946905995855348E-11i
0.3                       -0.6                     0.9                      -6.671148269638087E-10-1.869826380464997E-10i
0.3                       -0.9                     -0.6                     4.950463808206434E-10+1.3995103543515788E-10i
0.3                       -1.2                     -0.3                     2.6910100176739053E-10+7.633105880837202E-11i
0.3                       -0.6                     -0.9                     6.640160641946451E-10+1.8365679142027995E-10i
1.5                       -0.3                     0                        -1.5612877053426844E-12-2.3246164969864145E-12i
0.3                       -1.5                     0                        -1.6596671131396367E-12-1.666857113881639E-12i
0.3                       -0.3                     1.2                      -7.812344957390844E-10-2.1117674226585188E-10i
0.3                       -0.3                     -1.2                     7.790813047901423E-10+2.0810359109468702E-10i
-0.9                      -0.9                     0                        -5.288234769965561E-13-2.371593362332183E-13i
-0.9                      -0.6                     0.3                      -2.6770837964544735E-10-8.005260717703928E-11i
-0.9                      -0.6                     -0.3                     2.667967859197718E-10+7.98622551723758E-11i
-0.6                      -0.9                     0.3                      -2.6788419131945085E-10-8.009348888204961E-11i
-0.6                      -0.9                     -0.3                     2.666803709722196E-10+7.917460582998035E-11i
-1.2                      -0.6                     0                        -3.758084340838633E-13+3.5256823131611626E-14i
-0.6                      -1.2                     0                        -7.398095653593275E-13-5.67575507943044E-13i
-0.6                      -0.6                     0.6                      -4.893402539264843E-10-1.4287563696828828E-10i
-0.6                      -0.6                     -0.6                     4.883300988758986E-10+1.4226614486062023E-10i
-0.9                      -0.3                     0.6                      -4.965958904011406E-10-1.4454861254790503E-10i
-1.2                      -0.3                     0.3                      -2.7057819418685683E-10-7.9478379978594E-11i
-0.6                      -0.3                     0.9                      -6.655765851989046E-10-1.884980693334692E-10i
-0.9                      -0.3                     -0.6                     4.960328791790626E-10+1.449302336855438E-10i
-1.2                      -0.3                     -0.3                     2.6998426051836916E-10+8.005521185132941E-11i
-0.6                      -0.3                     -0.9                     6.645466755008212E-10+1.8824498879334042E-10i
-0.3                      -0.9                     0.6                      -4.973469366680246E-10-1.4391779368524303E-10i
-0.3                      -1.2                     0.3                      -2.7174938618429487E-10-7.976137679099035E-11i
-0.3                      -0.6                     0.9                      -6.659402094134072E-10-1.8775118499531235E-10i
-0.3                      -0.9                     -0.6                     4.955714992523148E-10+1.4227431289713083E-10i
-0.3                      -1.2                     -0.3                     2.694468971686186E-10+7.780840770158639E-11i
-0.3                      -0.6                     -0.9                     6.644743016161925E-10+1.863831326289382E-10i
-1.5                      -0.3                     0                        -4.3128321582791804E-13+2.0007490279244338E-13i
-0.3                      -1.5                     0                        -1.0258775946455972E-12-9.330129716706295E-13i
-0.3                      -0.3                     1.2                      -7.805387194129335E-10-2.120425605487974E-10i
-0.3                      -0.3                     -1.2                     7.792166544642437E-10+2.1092326742249045E-10i
0.9                       0                        0.9                      -7.013609884736128E-10-1.9843323984374198E-10i
1.2                       0                        0.6                      -5.219938124123121E-10-1.506628776261327E-10i
0.6                       0                        1.2                      -8.071561425267992E-10-2.2041234188636584E-10i
1.5                       0                        0.3                      -2.804191097211825E-10-8.18871620541799E-11i
0.3                       0                        1.5                      -8.553862110236817E-10-2.2161154651967415E-10i
-0.9                      0                        0.9                      -6.999038323670775E-10-1.996631588422518E-10i
-1.2                      0                        0.6                      -5.206415722379828E-10-1.510155936467661E-10i
-0.6                      0                        1.2                      -8.061376823342743E-10-2.2168277671676819E-10i
-1.5                      0                        0.3                      -2.793900135508574E-10-8.079134653144345E-11i
-0.3                      0                        1.5                      -8.547956902855024E-10-2.2228362917509702E-10i
0.9                       0                        -0.9                     6.993631112795012E-10+1.9378679688810122E-10i
1.2                       0                        -0.6                     5.199962882422379E-10+1.4582526789134394E-10i
0.6                       0                        -1.2                     8.052345574772365E-10+2.1638667539983922E-10i
1.5                       0                        -0.3                     2.782943291646208E-10+7.715589129264639E-11i
0.3                       0                        -1.5                     8.53644444504912E-10+2.185452223861962E-10i
-0.9                      0                        -0.9                     6.995265244846614E-10+2.008450163026024E-10i
-1.2                      0                        -0.6                     5.202989952549324E-10+1.5246046373147307E-10i
-0.6                      0                        -1.2                     8.052419334172139E-10+2.2204571634335958E-10i
-1.5                      0                        -0.3                     2.790731220212886E-10+8.212188791427889E-11i
-0.3                      0                        -1.5                     8.538728570741607E-10+2.2166405096835006E-10i
0                         0.9                      0.9                      -6.996502894820212E-10-2.0074111069905148E-10i
0                         1.2                      0.6                      -5.203692609792154E-10-1.5218965261291705E-10i
0                         0.6                      1.2                      -8.055905019180924E-10-2.224414419105991E-10i
0                         1.5                      0.3                      -2.7907191589554745E-10-8.180786892096494E-11i
0                         0.3                      1.5                      -8.546869047291913E-10-2.2275472081560925E-10i
0                         -0.9                     0.9                      -7.01999618691178E-10-1.9738622626604988E-10i
0                         -1.2                     0.6                      -5.222423793820948E-10-1.4938239018178018E-10i
0                         -0.6                     1.2                      -8.074361243648856E-10-2.1949974480403276E-10i
0                         -1.5                     0.3                      -2.806702128622041E-10-8.074952409270639E-11i
0                         -0.3                     1.5                      -8.555903425949112E-10-2.2112735669419048E-10i
0                         0.9                      -0.9                     6.999447509761298E-10+2.00197531657302E-10i
0                         1.2                      -0.6                     5.205875089904226E-10+1.5161065066151697E-10i
0                         0.6                      -1.2                     8.05453632488952E-10+2.2152415966547994E-10i
0                         1.5                      -0.3                     2.7916477723022996E-10+8.11717489292271E-11i
0                         0.3                      -1.5                     8.539154999528482E-10+2.2132652771443901E-10i
0                         -0.9                     -0.9                     6.991836692601105E-10+1.9472432460379433E-10i
0                         -1.2                     -0.6                     5.199035712755512E-10+1.469251220252745E-10i
0                         -0.6                     -1.2                     8.052322057960386E-10+2.170567566529713E-10i
0                         -1.5                     -0.3                     2.781312323972418E-10+7.819466150597454E-11i
0                         -0.3                     -1.5                     8.536347836058379E-10+2.189243495514812E-10i
1.2                       1.2                      0                        6.868727784273444E-14-2.837968725353816E-12i
1.2                       0.9                      0.3                      -3.121702903881565E-10-1.0068238345060994E-10i
1.2                       0.9                      -0.3                     3.1164474594073603E-10+9.465240843557856E-11i
0.9                       1.2                      0.3                      -3.117970503511026E-10-1.004674892331957E-10i
0.9                       1.2                      -0.3                     3.115479171240815E-10+9.496033199765313E-11i
1.5                       0.9                      0                        -2.9414152628289116E-13-2.870682126095105E-12i
0.9                       1.5                      0                        -2.2719091139173357E-13-2.6466614029646157E-12i
0.9                       0.9                      0.6                      -5.690604933406927E-10-1.7885352767326146E-10i
0.9                       0.9                      -0.6                     5.688792966283942E-10+1.729093995666986E-10i
1.2                       0.6                      0.6                      -5.658952212834608E-10-1.7371390808839668E-10i
1.5                       0.6                      0.3                      -3.03365209953746E-10-9.381241275676157E-11i
0.9                       0.6                      0.9                      -7.599353356965418E-10-2.2822689071326737E-10i
1.2                       0.6                      -0.6                     5.652928490342175E-10+1.6766651014963572E-10i
1.5                       0.6                      -0.3                     3.0267866155174405E-10+8.832494212356608E-11i
0.9                       0.6                      -0.9                     7.596151247823964E-10+2.223875265972253E-10i
0.6                       1.2                      0.6                      -5.655049776587645E-10-1.740092597459853E-10i
0.6                       1.5                      0.3                      -3.0307624075599185E-10-9.370782950361842E-11i