% Model:              Untitled.mph
% Version:            COMSOL 5.5.0.359
% Date:               Oct 7 2022, 19:01
% Dimension:          3
% Nodes:              891
% Expressions:        1
% Description:        Electric potential
% Length unit:        nm
% x                       y                        z                        V (V)
0                         0                        0                        2.4632130106518896E-13+1.231099656054353E-12i
0.15                      0.15                     0                        7.648446369662565E-14+1.0175385487724826E-12i
-0.15                     0.15                     0                        5.934086298154372E-13+1.2370097560589975E-12i
0.15                      -0.15                    0                        4.5053723390405305E-14+7.763601590065592E-13i
-0.15                     -0.15                    0                        3.838373896514138E-13+1.3287171376776532E-12i
0.15                      0                        0.15                     -7.309096931939208E-11-2.012451276128934E-10i
-0.15                     0                        0.15                     -7.264730363024725E-11-2.01322983312105E-10i
0.15                      0                        -0.15                    7.32180511158891E-11+2.0351648234862298E-10i
-0.15                     0                        -0.15                    7.351125561034181E-11+2.0420420773356337E-10i
0                         0.15                     0.15                     -7.27156034882329E-11-2.013052927459285E-10i
0                         -0.15                    0.15                     -7.290156915348565E-11-2.0140593989375164E-10i
0                         0.15                     -0.15                    7.333809374247033E-11+2.0407957027157645E-10i
0                         -0.15                    -0.15                    7.322498135365882E-11+2.0399931902847153E-10i
0.3                       0                        0                        -1.072551821663557E-13+5.709972958153902E-13i
-0.3                      0                        0                        5.259744755723664E-13+1.5619066201845764E-12i
0                         0.3                      0                        2.2086918359135273E-13+1.52598165918953E-12i
0                         -0.3                     0                        2.0091006652840334E-13+7.26590226393081E-13i
0                         0                        0.3                      -1.4389152981300083E-10-4.0892099122953154E-10i
0                         0                        -0.3                     1.4489813245550915E-10+4.110875055014219E-10i
0.3                       0.3                      0                        -1.8818635777323285E-13+9.222473534610482E-13i
0.3                       0.15                     0.15                     -7.444949365979583E-11-1.9857981218915283E-10i
0.3                       0.15                     -0.15                    7.414697391205665E-11+2.003269316903094E-10i
0.15                      0.3                      0.15                     -7.423347727430018E-11-1.9856029572457122E-10i
0.15                      0.3                      -0.15                    7.439792252699557E-11+2.004689744177282E-10i
0.45                      0.15                     0                        -4.2596682447369123E-13+6.957737598683711E-13i
0.15                      0.45                     0                        -8.358240520251935E-14+1.392105075144625E-12i
0.15                      0.15                     0.3                      -1.4527204042862914E-10-4.0603552245215875E-10i
0.15                      0.15                     -0.3                     1.457581927139597E-10+4.081413968695447E-10i
-0.3                      0.3                      0                        5.804705534424752E-13+1.8430607223696966E-12i
-0.3                      0.15                     0.15                     -7.377147263684711E-11-1.978754861921282E-10i
-0.3                      0.15                     -0.15                    7.502050225382057E-11+2.0144868087146184E-10i
-0.15                     0.3                      0.15                     -7.389211580781316E-11-1.9775973030526013E-10i
-0.15                     0.3                      -0.15                    7.488164538605825E-11+2.0106948963394834E-10i
-0.45                     0.15                     0                        6.530370899668704E-13+2.1446241258318284E-12i
-0.15                     0.45                     0                        4.697492652320108E-13+1.6757824952399207E-12i
-0.15                     0.15                     0.3                      -1.4504355498968507E-10-4.0537881336021395E-10i
-0.15                     0.15                     -0.3                     1.4640083590705692E-10+4.0802566796912946E-10i
0.3                       -0.3                     0                        -3.665457076562826E-13+6.234179247654892E-13i
0.3                       -0.15                    0.15                     -7.457900820270817E-11-1.9885452335163786E-10i
0.3                       -0.15                    -0.15                    7.417987338866797E-11+2.0015694828398137E-10i
0.15                      -0.3                     0.15                     -7.447668349970037E-11-1.9904296806941025E-10i
0.15                      -0.3                     -0.15                    7.440845979761503E-11+1.99820716952325E-10i
0.45                      -0.15                    0                        -4.737363220554116E-13+4.705954760280128E-13i
0.15                      -0.45                    0                        -2.7013312953996965E-13+7.062013283993065E-13i
0.15                      -0.15                    0.3                      -1.4570031652164574E-10-4.0564240269621283E-10i
0.15                      -0.15                    -0.3                     1.4578309367743896E-10+4.079321595597633E-10i
-0.3                      -0.3                     0                        3.433009458158237E-13+1.4669578821752644E-12i
-0.3                      -0.15                    0.15                     -7.393100342026593E-11-1.978492876274693E-10i
-0.3                      -0.15                    -0.15                    7.482685047198551E-11+2.0130659481601113E-10i
-0.15                     -0.3                     0.15                     -7.421932380578088E-11-1.979663835484305E-10i
-0.15                     -0.3                     -0.15                    7.461843945829526E-11+2.007228412548281E-10i
-0.45                     -0.15                    0                        3.770838986442854E-13+2.2064181523515654E-12i
-0.15                     -0.45                    0                        9.288956709061306E-14+1.4260361401308787E-12i
-0.15                     -0.15                    0.3                      -1.45255633775264E-10-4.053152071708583E-10i
-0.15                     -0.15                    -0.3                     1.463213001409667E-10+4.080400752311167E-10i
0.3                       0                        0.3                      -1.4687021261325286E-10-4.0174402198576723E-10i
0.45                      0                        0.15                     -7.576051438623534E-11-1.936851663127502E-10i
0.15                      0                        0.45                     -2.1327824035747851E-10-6.212064518617021E-10i
-0.3                      0                        0.3                      -1.4638084611510862E-10-4.0028433306391224E-10i
-0.45                     0                        0.15                     -7.495765201130963E-11-1.9227329342520558E-10i
-0.15                     0                        0.45                     -2.1311306985133336E-10-6.20550931055285E-10i
0.3                       0                        -0.3                     1.4695115961630505E-10+4.027375505508808E-10i
0.45                      0                        -0.15                    7.495525072644276E-11+1.9537078983789447E-10i
0.15                      0                        -0.45                    2.1453244954007288E-10+6.229745322063244E-10i
-0.3                      0                        -0.3                     1.477454754624116E-10+4.0370436794621274E-10i
-0.45                     0                        -0.15                    7.605407226165387E-11+1.9612274215337698E-10i
-0.15                     0                        -0.45                    2.147879062230711E-10+6.232711384111395E-10i
0                         0.3                      0.3                      -1.4653071626988226E-10-4.007433312837182E-10i
0                         0.45                     0.15                     -7.508386523016431E-11-1.9315180526955712E-10i
0                         0.15                     0.45                     -2.1282327448758253E-10-6.215999024370941E-10i
0                         -0.3                     0.3                      -1.4682178645536238E-10-4.0127488849096636E-10i
0                         -0.45                    0.15                     -7.553528812361242E-11-1.9338138383784846E-10i
0                         -0.15                    0.45                     -2.1346619222956758E-10-6.207105231786853E-10i
0                         0.3                      -0.3                     1.4733986781323384E-10+4.0342685924757304E-10i
0                         0.45                     -0.15                    7.56549991573915E-11+1.962530155537148E-10i
0                         0.15                     -0.45                    2.1443598744211467E-10+6.235959467466675E-10i
0                         -0.3                     -0.3                     1.4730050935983882E-10+4.028661667273951E-10i
0                         -0.45                    -0.15                    7.552622929648712E-11+1.9545950232408675E-10i
0                         -0.15                    -0.45                    2.1453903999049128E-10+6.230571778247879E-10i
0.6                       0                        0                        -5.267724619291981E-13+1.3163516404821148E-12i
-0.6                      0                        0                        3.46603463366715E-13+1.3934739906696353E-12i
0                         0.6                      0                        9.10811866300723E-14+1.5058692109506554E-12i
0                         -0.6                     0                        -6.906304196032533E-14+1.1571362338908695E-12i
0                         0                        0.6                      -2.739921660205709E-10-8.533810903625871E-10i
0                         0                        -0.6                     2.765170541741537E-10+8.556628133610896E-10i
0.45                      0.45                     0                        -6.047842576384521E-13+3.7671150494998083E-13i
0.45                      0.3                      0.15                     -7.700978727084224E-11-1.961018758242444E-10i
0.45                      0.3                      -0.15                    7.597794111860952E-11+1.983678913759182E-10i
0.3                       0.45                     0.15                     -7.683549122479268E-11-1.9570126334223137E-10i
0.3                       0.45                     -0.15                    7.616361748901395E-11+1.9813095434473097E-10i
0.6                       0.3                      0                        -6.598773639316181E-13+1.2702814267741644E-12i
0.3                       0.6                      0                        -5.518401538890352E-13+8.973995485010949E-13i
0.3                       0.3                      0.3                      -1.4941612861431706E-10-3.9885494484895855E-10i
0.3                       0.3                      -0.3                     1.4916746088258232E-10+4.008964056992904E-10i
0.45                      0.15                     0.3                      -1.5061977230074477E-10-3.917432325279355E-10i
0.6                       0.15                     0.15                     -7.793839611070988E-11-1.8767213722152026E-10i
0.3                       0.15                     0.45                     -2.1852029900280407E-10-6.088467778794326E-10i
0.45                      0.15                     -0.3                     1.4998434635358778E-10+3.9371115251676596E-10i
0.6                       0.15                     -0.15                    7.663413396156899E-11+1.8842479594869038E-10i
0.3                       0.15                     -0.45                    2.188658414185978E-10+6.097495481954578E-10i
0.15                      0.45                     0.3                      -1.5030229881082788E-10-3.914043879271138E-10i
0.15                      0.6                      0.15                     -7.740005748904041E-11-1.8742186514382052E-10i
0.15                      0.3                      0.45                     -2.18117566082377E-10-6.096204293713151E-10i
0.15                      0.45                     -0.3                     1.5036864927171527E-10+3.9361616100182464E-10i
0.15                      0.6                      -0.15                    7.712999060543565E-11+1.8964757119922028E-10i
0.15                      0.3                      -0.45                    2.1908543200656517E-10+6.107962252526415E-10i
0.75                      0.15                     0                        -6.578807204740013E-13+1.1242141604377379E-12i
0.15                      0.75                     0                        -3.723819607103406E-13+7.767747215110827E-13i
0.15                      0.15                     0.6                      -2.792468039616785E-10-8.427862185628991E-10i
0.15                      0.15                     -0.6                     2.810415820409694E-10+8.445906421412313E-10i
-0.45                     0.45                     0                        7.363125833613664E-13+2.1051153636219796E-12i
-0.45                     0.3                      0.15                     -7.604140105203035E-11-1.9507441962443924E-10i
-0.45                     0.3                      -0.15                    7.747748597753632E-11+1.9894134652681063E-10i
-0.3                      0.45                     0.15                     -7.603977468783148E-11-1.947791498475697E-10i
-0.3                      0.45                     -0.15                    7.744624394032922E-11+1.9890791768668419E-10i
-0.6                      0.3                      0                        6.305126791947636E-13+2.9803248408467787E-12i
-0.3                      0.6                      0                        5.351887341956517E-13+1.2142446731814597E-12i
-0.3                      0.3                      0.3                      -1.4895868482971978E-10-3.9765893781127724E-10i
-0.3                      0.3                      -0.3                     1.505487997048062E-10+4.0159365997173004E-10i
-0.45                     0.15                     0.3                      -1.499980276342494E-10-3.902834438769189E-10i
-0.6                      0.15                     0.15                     -7.699473176395643E-11-1.8578370459045964E-10i
-0.3                      0.15                     0.45                     -2.178677275373173E-10-6.079743163816158E-10i
-0.45                     0.15                     -0.3                     1.5150162825293157E-10+3.941517229528071E-10i
-0.6                      0.15                     -0.15                    7.810288577333376E-11+1.9018710584239765E-10i
-0.3                      0.15                     -0.45                    2.200258208555948E-10+6.113988233266664E-10i
-0.15                     0.45                     0.3                      -1.498928880652581E-10-3.904685660569365E-10i
-0.15                     0.6                      0.15                     -7.691203207063331E-11-1.861796814829504E-10i
-0.15                     0.3                      0.45                     -2.1780881555105145E-10-6.088949644792329E-10i
-0.15                     0.45                     -0.3                     1.5110465348742025E-10+3.946652546606866E-10i
-0.15                     0.6                      -0.15                    7.783450661600041E-11+1.895073612876428E-10i
-0.15                     0.3                      -0.45                    2.1954229160378434E-10+6.117715628659163E-10i
-0.75                     0.15                     0                        4.942582522800262E-13+2.4000985491362375E-12i
-0.15                     0.75                     0                        3.153614788641149E-13+2.860097751951404E-12i
-0.15                     0.15                     0.6                      -2.787767854321028E-10-8.430484160224869E-10i
-0.15                     0.15                     -0.6                     2.8136289574137967E-10+8.452007935884861E-10i
0.45                      -0.45                    0                        -7.63232239519293E-13+1.2740371376556798E-12i
0.45                      -0.3                     0.15                     -7.728587915792451E-11-1.9709870690221596E-10i
0.45                      -0.3                     -0.15                    7.617968600108136E-11+1.9747233077030665E-10i
0.3                       -0.45                    0.15                     -7.720214762717122E-11-1.9647954733365282E-10i
0.3                       -0.45                    -0.15                    7.636241732035317E-11+1.9706264705579093E-10i
0.6                       -0.3                     0                        -8.260935661117731E-13-1.5254914731641173E-14i
0.3                       -0.6                     0                        -5.273533885221881E-13-3.151686108847192E-13i
0.3                       -0.3                     0.3                      -1.4999823358246234E-10-3.989437932692727E-10i
0.3                       -0.3                     -0.3                     1.4937734980241433E-10+3.9991771845502176E-10i
0.45                      -0.15                    0.3                      -1.509582103333209E-10-3.9141369111132397E-10i
0.6                       -0.15                    0.15                     -7.807984023749914E-11-1.8767533816013036E-10i
0.3                       -0.15                    0.45                     -2.1871644228021094E-10-6.092548643009228E-10i
0.45                      -0.15                    -0.3                     1.502354943202252E-10+3.920594231912707E-10i
0.6                       -0.15                    -0.15                    7.680290240723326E-11+1.8852274065893245E-10i
0.3                       -0.15                    -0.45                    2.1884317188460077E-10+6.097704437624463E-10i
0.15                      -0.45                    0.3                      -1.508879380639869E-10-3.9174678611580194E-10i
0.15                      -0.6                     0.15                     -7.779812680381705E-11-1.8760547697031412E-10i
0.15                      -0.3                     0.45                     -2.1862840703465325E-10-6.083372954917638E-10i
0.15                      -0.45                    -0.3                     1.5060087145716462E-10+3.922009436642578E-10i
0.15                      -0.6                     -0.15                    7.720758748573606E-11+1.8882195639666106E-10i
0.15                      -0.3                     -0.45                    2.1888579215618197E-10+6.111007020100031E-10i
0.75                      -0.15                    0                        -8.659612512835488E-13+3.210688529857982E-13i
0.15                      -0.75                    0                        -5.021849384610831E-13-2.2797305260204205E-14i
0.15                      -0.15                    0.6                      -2.789920640490713E-10-8.441754561713425E-10i
0.15                      -0.15                    -0.6                     2.815212491832917E-10+8.437510913234129E-10i
-0.45                     -0.45                    0                        2.500481411525822E-13+1.8491514577201482E-12i
-0.45                     -0.3                     0.15                     -7.646387558199298E-11-1.9519615214739881E-10i
-0.45                     -0.3                     -0.15                    7.716820241702968E-11+1.9886741304650102E-10i
-0.3                      -0.45                    0.15                     -7.658658103816219E-11-1.9558251645418418E-10i
-0.3                      -0.45                    -0.15                    7.69703712860488E-11+1.9881299715849828E-10i
-0.6                      -0.3                     0                        2.16318627528362E-13+2.358542877641655E-12i
-0.3                      -0.6                     0                        -7.0967300565489935E-15+1.307694993306636E-12i
-0.3                      -0.3                     0.3                      -1.493762974983268E-10-3.979280006603279E-10i
-0.3                      -0.3                     -0.3                     1.501282637576192E-10+4.009329824855406E-10i
-0.45                     -0.15                    0.3                      -1.5007847089002335E-10-3.9065747849132727E-10i
-0.6                      -0.15                    0.15                     -7.712680524319721E-11-1.861335871431059E-10i
-0.3                      -0.15                    0.45                     -2.1806186562055741E-10-6.076405996576396E-10i
-0.45                     -0.15                    -0.3                     1.513293853864099E-10+3.9324577431808787E-10i
-0.6                      -0.15                    -0.15                    7.794699170343305E-11+1.901941827319565E-10i
-0.3                      -0.15                    -0.45                    2.1950088407349785E-10+6.11591982457885E-10i
-0.15                     -0.45                    0.3                      -1.5050130847126935E-10-3.903882232060909E-10i
-0.15                     -0.6                     0.15                     -7.744327980817073E-11-1.8639850631398404E-10i
-0.15                     -0.3                     0.45                     -2.1821358915364729E-10-6.086076919851424E-10i
-0.15                     -0.45                    -0.3                     1.510938718527421E-10+3.9226920953129395E-10i
-0.15                     -0.6                     -0.15                    7.753962705502775E-11+1.8880970202383538E-10i
-0.15                     -0.3                     -0.45                    2.1952500176373466E-10+6.106713207766872E-10i
-0.75                     -0.15                    0                        6.093838164285022E-14+1.984019448833786E-12i
-0.15                     -0.75                    0                        -2.7150293776213697E-13+7.287615340473674E-13i
-0.15                     -0.15                    0.6                      -2.794207963134988E-10-8.414839171297546E-10i
-0.15                     -0.15                    -0.6                     2.8131555984155685E-10+8.455149557408389E-10i
0.45                      0                        0.45                     -2.2264992558234477E-10-5.900034887960631E-10i
0.6                       0                        0.3                      -1.5369218185755034E-10-3.7248007066898676E-10i
0.3                       0                        0.6                      -2.835186455115532E-10-8.306099323047671E-10i
0.75                      0                        0.15                     -7.983201591086702E-11-1.753029036386694E-10i
0.15                      0                        0.75                     -3.301946100129722E-10-1.0973961581775286E-9i
-0.45                     0                        0.45                     -2.2187155282956082E-10-5.883296933641832E-10i
-0.6                      0                        0.3                      -1.5272873773582434E-10-3.6955121555597354E-10i
-0.3                      0                        0.6                      -2.83143205581836E-10-8.302508169067193E-10i
-0.75                     0                        0.15                     -7.844941702913076E-11-1.7160542198547393E-10i
-0.15                     0                        0.75                     -3.2963685637360787E-10-1.0968514945697202E-9i
0.45                      0                        -0.45                    2.224495902850118E-10+5.908832262622294E-10i
0.6                       0                        -0.3                     1.52558993481889E-10+3.729534260747027E-10i
0.3                       0                        -0.6                     2.8434301974086007E-10+8.326194404392615E-10i
0.75                      0                        -0.15                    7.78968678723736E-11+1.7491400500331242E-10i
0.15                      0                        -0.75                    3.3421207052177575E-10+1.0985804121684921E-9i
-0.45                     0                        -0.45                    2.2370018707965959E-10+5.930708676718667E-10i
-0.6                      0                        -0.3                     1.5408693270513479E-10+3.7470990149860695E-10i
-0.3                      0                        -0.6                     2.8549720452027956E-10+8.335315156694886E-10i
-0.75                     0                        -0.15                    7.89686145717784E-11+1.756019067579529E-10i
-0.15                     0                        -0.75                    3.344278974230255E-10+1.1000832808613623E-9i
0                         0.45                     0.45                     -2.2184289950171868E-10-5.89511448306854E-10i
0                         0.6                      0.3                      -1.5280515646439037E-10-3.7140625789731743E-10i
0                         0.3                      0.6                      -2.8286673326397786E-10-8.295340031459849E-10i
0                         0.75                     0.15                     -7.841480527995555E-11-1.717106104447424E-10i
0                         0.15                     0.75                     -3.296706127099936E-10-1.0978676973887504E-9i
0                         -0.45                    0.45                     -2.2262392553790753E-10-5.887705759063217E-10i
0                         -0.6                     0.3                      -1.5350841817530671E-10-3.715894676071582E-10i
0                         -0.3                     0.6                      -2.8341718789637644E-10-8.310568476388778E-10i
0                         -0.75                    0.15                     -7.910178556561928E-11-1.7382423000655776E-10i
0                         -0.15                    0.75                     -3.305098819074602E-10-1.0966184220292615E-9i
0                         0.45                     -0.45                    2.2302429223575288E-10+5.921658692697474E-10i
0                         0.6                      -0.3                     1.5320057265307211E-10+3.742344172194786E-10i
0                         0.3                      -0.6                     2.850857533543515E-10+8.329212194206398E-10i
0                         0.75                     -0.15                    7.86041751482763E-11+1.7528884953626336E-10i
0                         0.15                     -0.75                    3.334746977806818E-10+1.0995171282123036E-9i
0                         -0.45                    -0.45                    2.230529712511329E-10+5.92360341048885E-10i
0                         -0.6                     -0.3                     1.5330930232444604E-10+3.723715597671593E-10i
0                         -0.3                     -0.6                     2.855254968741841E-10+8.31331663415716E-10i
0                         -0.75                    -0.15                    7.856365723747221E-11+1.7468587430439867E-10i
0                         -0.15                    -0.75                    3.33913890401672E-10+1.0990589473329429E-9i
0.9                       0                        0                        -1.018469333166046E-12-4.895140704702276E-13i
-0.9                      0                        0                        -4.9856517487886934E-14+1.5239626766423726E-12i
0                         0.9                      0                        1.3981002560990676E-13+2.6716041103786683E-12i
0                         -0.9                     0                        -6.72671333216155E-13-4.561085987012232E-13i
0                         0                        0.9                      -3.5931624178979706E-10-1.389991536744908E-9i
0                         0                        -0.9                     3.6482784586975827E-10+1.3921045784358684E-9i
0.6                       0.6                      0                        -1.0390199781563654E-12+1.9783934951807513E-13i
0.6                       0.45                     0.15                     -8.073935777018303E-11-2.0086359442099128E-10i
0.6                       0.45                     -0.15                    7.89536594220587E-11+2.019394753119073E-10i
0.45                      0.6                      0.15                     -8.06368503591301E-11-2.0044421998431168E-10i
0.45                      0.6                      -0.15                    7.910923572174185E-11+2.026438777395277E-10i
0.75                      0.45                     0                        -1.1810322939663376E-12+1.2053892133203115E-13i
0.45                      0.75                     0                        -8.898681988942286E-13+1.5793474411038751E-12i
0.45                      0.45                     0.3                      -1.5545184179840123E-10-3.988676629336366E-10i
0.45                      0.45                     -0.3                     1.5401862285794955E-10+4.007233586623812E-10i
0.6                       0.3                      0.3                      -1.5633092738955085E-10-3.8633997902783716E-10i
0.75                      0.3                      0.15                     -8.159419780453264E-11-1.857787226740819E-10i