% Model:              Untitled.mph
% Version:            COMSOL 5.5.0.359
% Date:               Oct 7 2022, 19:09
% Dimension:          3
% Nodes:              891
% Expressions:        1
% Description:        Electric potential
% Length unit:        nm
% x                       y                        z                        V (V)
0                         0                        0                        1.681393505219701E-13-1.9966943649473178E-13i
0.15                      0.15                     0                        1.7766837093426033E-13-2.1075643765970742E-13i
-0.15                     0.15                     0                        2.3690834443182205E-13-2.439201252006097E-13i
0.15                      -0.15                    0                        1.8598615151972637E-13-2.1895191589090806E-13i
-0.15                     -0.15                    0                        1.8631527253917338E-13-2.0493507028992062E-13i
0.15                      0                        0.15                     2.151515068397564E-11-7.970154000403261E-11i
-0.15                     0                        0.15                     2.1617947271263138E-11-7.980248270377471E-11i
0.15                      0                        -0.15                    -2.1238359264178933E-11+7.934797187657741E-11i
-0.15                     0                        -0.15                    -2.1266471833166666E-11+7.939178586267957E-11i
0                         0.15                     0.15                     2.1587780914403536E-11-7.976001453692932E-11i
0                         -0.15                    0.15                     2.1573466885067594E-11-7.976169794822068E-11i
0                         0.15                     -0.15                    -2.1269803590516204E-11+7.938712360182545E-11i
0                         -0.15                    -0.15                    -2.1296978382500904E-11+7.940910092225139E-11i
0.3                       0                        0                        1.9786556568393128E-13-2.36045361669243E-13i
-0.3                      0                        0                        2.064915602608921E-13-2.164837895588312E-13i
0                         0.3                      0                        1.6095638779190387E-13-1.7297779735389262E-13i
0                         -0.3                     0                        2.278393626718076E-13-2.5300761315757283E-13i
0                         0                        0.3                      4.3815618684968007E-11-1.6014957404148896E-10i
0                         0                        -0.3                     -4.345767325502005E-11+1.5969206060376664E-10i
0.3                       0.3                      0                        1.7562685359015766E-13-1.9961927541217535E-13i
0.3                       0.15                     0.15                     2.1037234149366752E-11-7.924609469533945E-11i
0.3                       0.15                     -0.15                    -2.071551218077752E-11+7.884400564579373E-11i
0.15                      0.3                      0.15                     2.1084736325530856E-11-7.929143596848315E-11i
0.15                      0.3                      -0.15                    -2.0680516229511663E-11+7.882087267419359E-11i
0.45                      0.15                     0                        1.6753347885813535E-13-2.0388530916731675E-13i
0.15                      0.45                     0                        1.5784439992442463E-13-1.6220966239352254E-13i
0.15                      0.15                     0.3                      4.328873913085825E-11-1.5964195143054572E-10i
0.15                      0.15                     -0.3                     -4.297372894531683E-11+1.5922323619804035E-10i
-0.3                      0.3                      0                        2.0795127234161197E-13-1.9416497429424338E-13i
-0.3                      0.15                     0.15                     2.110332292646365E-11-7.928668914557334E-11i
-0.3                      0.15                     -0.15                    -2.0719293430067905E-11+7.890800266697818E-11i
-0.15                     0.3                      0.15                     2.1058682202763146E-11-7.923579508906144E-11i
-0.15                     0.3                      -0.15                    -2.0683062657190202E-11+7.885433726061335E-11i
-0.45                     0.15                     0                        1.8407700665496453E-13-1.4627445279245884E-13i
-0.15                     0.45                     0                        2.106670384988576E-13-1.8721315936502403E-13i
-0.15                     0.15                     0.3                      4.3280116547952595E-11-1.596199758975045E-10i
-0.15                     0.15                     -0.3                     -4.286511213431057E-11+1.591321900445449E-10i
0.3                       -0.3                     0                        1.5723105376711615E-13-1.8527501546124252E-13i
0.3                       -0.15                    0.15                     2.104916789811143E-11-7.926612571825538E-11i
0.3                       -0.15                    -0.15                    -2.0723396760304737E-11+7.886234452826627E-11i
0.15                      -0.3                     0.15                     2.110307927815258E-11-7.933214371476001E-11i
0.15                      -0.3                     -0.15                    -2.0649492900269305E-11+7.878580785460181E-11i
0.45                      -0.15                    0                        1.6944642626931747E-13-2.0151161270906312E-13i
0.15                      -0.45                    0                        1.758721837935467E-13-1.9837908334471644E-13i
0.15                      -0.15                    0.3                      4.3191222424658994E-11-1.5956028239027034E-10i
0.15                      -0.15                    -0.3                     -4.298325793397434E-11+1.5923784576940582E-10i
-0.3                      -0.3                     0                        1.9839355868297391E-13-2.1095043832156874E-13i
-0.3                      -0.15                    0.15                     2.1071390290703843E-11-7.926523207657379E-11i
-0.3                      -0.15                    -0.15                    -2.0745460923755486E-11+7.891490180969123E-11i
-0.15                     -0.3                     0.15                     2.1034218136066224E-11-7.92418812844747E-11i
-0.15                     -0.3                     -0.15                    -2.071028986861804E-11+7.885556398819694E-11i
-0.45                     -0.15                    0                        1.34602311242827E-13-1.2583799188844664E-13i
-0.15                     -0.45                    0                        1.5960581110107832E-13-1.6436440822183403E-13i
-0.15                     -0.15                    0.3                      4.3246678850980125E-11-1.596024214245273E-10i
-0.15                     -0.15                    -0.3                     -4.291242771498884E-11+1.5918644090820268E-10i
0.3                       0                        0.3                      4.2537023151945676E-11-1.5885288518549942E-10i
0.45                      0                        0.15                     2.0228206176970697E-11-7.832724506689983E-11i
0.15                      0                        0.45                     6.679464028436988E-11-2.4126913100322614E-10i
-0.3                      0                        0.3                      4.2494596267050876E-11-1.5877727617024372E-10i
-0.45                     0                        0.15                     2.025204387146322E-11-7.832039472680628E-11i
-0.15                     0                        0.45                     6.678830352270718E-11-2.4126117574456994E-10i
0.3                       0                        -0.3                     -4.215215829747258E-11+1.5834961509562815E-10i
0.45                      0                        -0.15                    -1.9977383187911447E-11+7.802290029563293E-11i
0.15                      0                        -0.45                    -6.649241346073722E-11+2.4082385438511696E-10i
-0.3                      0                        -0.3                     -4.214692009660123E-11+1.5838398748807953E-10i
-0.45                     0                        -0.15                    -1.9871960464886706E-11+7.79501413904933E-11i
-0.15                     0                        -0.45                    -6.647229200755004E-11+2.407894367828341E-10i
0                         0.3                      0.3                      4.249366189920973E-11-1.5877984688327374E-10i
0                         0.45                     0.15                     2.03061455470928E-11-7.83786443984222E-11i
0                         0.15                     0.45                     6.691893622123258E-11-2.4138201711380115E-10i
0                         -0.3                     0.3                      4.252915241143734E-11-1.5885110404727654E-10i
0                         -0.45                    0.15                     2.0262784939415762E-11-7.836600284651857E-11i
0                         -0.15                    0.45                     6.674783117064873E-11-2.4124272914903996E-10i
0                         0.3                      -0.3                     -4.213902589828379E-11+1.583528028759755E-10i
0                         0.45                     -0.15                    -1.9941784765296313E-11+7.80352942672616E-11i
0                         0.15                     -0.45                    -6.65410303290859E-11+2.4084917530456904E-10i
0                         -0.3                     -0.3                     -4.213878848213234E-11+1.583483373206859E-10i
0                         -0.45                    -0.15                    -1.992123522121082E-11+7.799623337632408E-11i
0                         -0.15                    -0.45                    -6.65068528265813E-11+2.4081991723586024E-10i
0.6                       0                        0                        5.188275837479289E-14-1.3758756255650539E-14i
-0.6                      0                        0                        2.9913597616083124E-13-3.2715438352893E-13i
0                         0.6                      0                        2.0841223451920755E-13-1.9211118521657474E-13i
0                         -0.6                     0                        1.6816807566516366E-13-1.418651235280132E-13i
0                         0                        0.6                      9.325884335356589E-11-3.2577793609681387E-10i
0                         0                        -0.6                     -9.30335017985901E-11+3.2529494028820586E-10i
0.45                      0.45                     0                        2.3714003281031987E-13-2.861121456282078E-13i
0.45                      0.3                      0.15                     2.0533205404464434E-11-7.89455945566705E-11i
0.45                      0.3                      -0.15                    -2.031472276942319E-11+7.868397886978897E-11i
0.3                       0.45                     0.15                     2.0517488090161615E-11-7.890251543507474E-11i
0.3                       0.45                     -0.15                    -2.0234431070740114E-11+7.859479232586134E-11i
0.6                       0.3                      0                        7.888961938394262E-14-6.724641795033838E-14i
0.3                       0.6                      0                        2.1078493817485605E-13-2.3922496123381176E-13i
0.3                       0.3                      0.3                      4.197934158173809E-11-1.5850360808037397E-10i
0.3                       0.3                      -0.3                     -4.169421411564806E-11+1.5814157504236289E-10i
0.45                      0.15                     0.3                      4.085589878590604E-11-1.5716289548597298E-10i
0.6                       0.15                     0.15                     1.9250502957652102E-11-7.73376294887618E-11i
0.3                       0.15                     0.45                     6.465459554015009E-11-2.3919261296953613E-10i
0.45                      0.15                     -0.3                     -4.06396018009016E-11+1.5687852783161382E-10i
0.6                       0.15                     -0.15                    -1.886516947854719E-11+7.685880593296425E-11i
0.3                       0.15                     -0.45                    -6.427146602449657E-11+2.386249863664966E-10i
0.15                      0.45                     0.3                      4.0894843239946495E-11-1.5718791081061472E-10i
0.15                      0.6                      0.15                     1.934022872689824E-11-7.73972980864757E-11i
0.15                      0.3                      0.45                     6.482611172450884E-11-2.3937341080903823E-10i
0.15                      0.45                     -0.3                     -4.052272021683232E-11+1.5675829416724426E-10i
0.15                      0.6                      -0.15                    -1.890886284452716E-11+7.696787775784373E-11i
0.15                      0.3                      -0.45                    -6.435927629484086E-11+2.3875952290425387E-10i
0.75                      0.15                     0                        9.058878478496263E-14-5.142764947090427E-14i
0.15                      0.75                     0                        2.905463186766361E-13-3.0785016836414614E-13i
0.15                      0.15                     0.6                      9.13515960723501E-11-3.240109967310635E-10i
0.15                      0.15                     -0.6                     -9.10960380266081E-11+3.2349968212525353E-10i
-0.45                     0.45                     0                        2.404627924947922E-13-1.8392202665668413E-13i
-0.45                     0.3                      0.15                     2.06326792781972E-11-7.900511052188845E-11i
-0.45                     0.3                      -0.15                    -2.0149523188364576E-11+7.857490826036881E-11i
-0.3                      0.45                     0.15                     2.0567073325491694E-11-7.890676484745343E-11i
-0.3                      0.45                     -0.15                    -2.0152490928135078E-11+7.858601656469696E-11i
-0.6                      0.3                      0                        1.2266727995211057E-13-3.158143178547865E-14i
-0.3                      0.6                      0                        3.4725322785530065E-13-3.440065921623053E-13i
-0.3                      0.3                      0.3                      4.198397376123817E-11-1.5848651208886592E-10i
-0.3                      0.3                      -0.3                     -4.160266660501263E-11+1.581292331419801E-10i
-0.45                     0.15                     0.3                      4.088558279337287E-11-1.57172360111757E-10i
-0.6                      0.15                     0.15                     1.926080713801535E-11-7.729063201543497E-11i
-0.3                      0.15                     0.45                     6.472395003375444E-11-2.39223792936504E-10i
-0.45                     0.15                     -0.3                     -4.0469595498039665E-11+1.5676484903898317E-10i
-0.6                      0.15                     -0.15                    -1.8841614060074387E-11+7.693360174235159E-11i
-0.3                      0.15                     -0.45                    -6.433866478750837E-11+2.3878886161326456E-10i
-0.15                     0.45                     0.3                      4.086927977495005E-11-1.571232173122418E-10i
-0.15                     0.6                      0.15                     1.926032487847414E-11-7.72560399735958E-11i
-0.15                     0.3                      0.45                     6.482908005017677E-11-2.393491629270005E-10i
-0.15                     0.45                     -0.3                     -4.056958922593478E-11+1.5687230777142891E-10i
-0.15                     0.6                      -0.15                    -1.87866819388442E-11+7.68588499228821E-11i
-0.15                     0.3                      -0.45                    -6.442210169809415E-11+2.3884355305904844E-10i
-0.75                     0.15                     0                        2.074967622882337E-13-1.2694024541434737E-13i
-0.15                     0.75                     0                        7.997947613786648E-14+4.082428311025677E-14i
-0.15                     0.15                     0.6                      9.150376252361591E-11-3.2415329604448376E-10i
-0.15                     0.15                     -0.6                     -9.112206737431616E-11+3.235230404854852E-10i
0.45                      -0.45                    0                        2.3763955974879638E-14+4.2424443941939376E-15i
0.45                      -0.3                     0.15                     2.0616395570659137E-11-7.905559151329897E-11i
0.45                      -0.3                     -0.15                    -2.0245110865628348E-11+7.862676545120345E-11i
0.3                       -0.45                    0.15                     2.0546928298269567E-11-7.89548058063921E-11i
0.3                       -0.45                    -0.15                    -2.0161101144250948E-11+7.853238823507375E-11i
0.6                       -0.3                     0                        2.1159912886483413E-13-2.5051302747211634E-13i
0.3                       -0.6                     0                        2.935323412921259E-13-3.275597092449927E-13i
0.3                       -0.3                     0.3                      4.192265707736072E-11-1.5846954863157082E-10i
0.3                       -0.3                     -0.3                     -4.1623015414366185E-11+1.5807137301571585E-10i
0.45                      -0.15                    0.3                      4.076811056761319E-11-1.5706199234212183E-10i
0.6                       -0.15                    0.15                     1.9219330032320583E-11-7.728683462794077E-11i
0.3                       -0.15                    0.45                     6.468956768439125E-11-2.3923823741959923E-10i
0.45                      -0.15                    -0.3                     -4.0428030377324016E-11+1.566341436527227E-10i
0.6                       -0.15                    -0.15                    -1.8901502831066153E-11+7.694362866296053E-11i
0.3                       -0.15                    -0.45                    -6.433294269477777E-11+2.3869270439656837E-10i
0.15                      -0.45                    0.3                      4.0868937209384355E-11-1.5720186593706514E-10i
0.15                      -0.6                     0.15                     1.927931380441855E-11-7.734598771919366E-11i
0.15                      -0.3                     0.45                     6.459691627900797E-11-2.3911011081015257E-10i
0.15                      -0.45                    -0.3                     -4.041350912251426E-11+1.5664061320761243E-10i
0.15                      -0.6                     -0.15                    -1.889061976689421E-11+7.696302739525805E-11i
0.15                      -0.3                     -0.45                    -6.452155023196756E-11+2.3892894044438573E-10i
0.75                      -0.15                    0                        1.8360536220866744E-13-1.948237087876234E-13i
0.15                      -0.75                    0                        3.0838355361209485E-13-3.399361265285325E-13i
0.15                      -0.15                    0.6                      9.156817504254163E-11-3.242422220618725E-10i
0.15                      -0.15                    -0.6                     -9.100898230690971E-11+3.2345187634376683E-10i
-0.45                     -0.45                    0                        1.7457075526469086E-13-1.6466600223937392E-13i
-0.45                     -0.3                     0.15                     2.0588370890435954E-11-7.901059729105698E-11i
-0.45                     -0.3                     -0.15                    -2.0232048269129607E-11+7.864102233728613E-11i
-0.3                      -0.45                    0.15                     2.060531668414687E-11-7.903491693059414E-11i
-0.3                      -0.45                    -0.15                    -2.0262735384837248E-11+7.867079728582961E-11i
-0.6                      -0.3                     0                        1.3559682089944087E-13-1.188379313098734E-13i
-0.3                      -0.6                     0                        2.242964561583812E-13-2.4817220943217957E-13i
-0.3                      -0.3                     0.3                      4.197430962425534E-11-1.585329173945898E-10i
-0.3                      -0.3                     -0.3                     -4.161590286307927E-11+1.5808880622269076E-10i
-0.45                     -0.15                    0.3                      4.0922100336646906E-11-1.572357083763592E-10i
-0.6                      -0.15                    0.15                     1.9284438178777696E-11-7.734749572308676E-11i
-0.3                      -0.15                    0.45                     6.465996458936986E-11-2.3917099050530714E-10i
-0.45                     -0.15                    -0.3                     -4.0398165611990304E-11+1.5664372336219142E-10i
-0.6                      -0.15                    -0.15                    -1.8900431728202136E-11+7.69905257917456E-11i
-0.3                      -0.15                    -0.45                    -6.445632328522668E-11+2.3886895515513175E-10i
-0.15                     -0.45                    0.3                      4.0787550041781135E-11-1.5708344009466887E-10i
-0.15                     -0.6                     0.15                     1.920464810289272E-11-7.723650587046372E-11i
-0.15                     -0.3                     0.45                     6.475274551122085E-11-2.392986307456096E-10i
-0.15                     -0.45                    -0.3                     -4.033143675639703E-11+1.5656190539469368E-10i
-0.15                     -0.6                     -0.15                    -1.8810135119246303E-11+7.685887214870262E-11i
-0.15                     -0.3                     -0.45                    -6.43642971370932E-11+2.387758218617181E-10i
-0.75                     -0.15                    0                        2.323017868604792E-13-2.471162787596366E-13i
-0.15                     -0.75                    0                        2.83000929860668E-13-3.1671384408589285E-13i
-0.15                     -0.15                    0.6                      9.123815483030034E-11-3.2389800479893327E-10i
-0.15                     -0.15                    -0.6                     -9.122640988994025E-11+3.2365912838026626E-10i
0.45                      0                        0.45                     6.166154159638704E-11-2.3579446154365534E-10i
0.6                       0                        0.3                      3.78812508164834E-11-1.5360356896768746E-10i
0.3                       0                        0.6                      8.929855848726227E-11-3.2190368795302256E-10i
0.75                      0                        0.15                     1.73863045581424E-11-7.511361709248806E-11i
0.15                      0                        0.75                     1.2162157089127564E-10-4.121253403362655E-10i
-0.45                     0                        0.45                     6.167834437284727E-11-2.3576113197107016E-10i
-0.6                      0                        0.3                      3.775806625365366E-11-1.5337572263057665E-10i
-0.3                      0                        0.6                      8.9437324423473E-11-3.2207352908548433E-10i
-0.75                     0                        0.15                     1.7161217982474574E-11-7.465640869431392E-11i
-0.15                     0                        0.75                     1.2165625925867136E-10-4.120981707092432E-10i
0.45                      0                        -0.45                    -6.134371780332859E-11+2.353347357991295E-10i
0.6                       0                        -0.3                     -3.7498091130992254E-11+1.5311802596072967E-10i
0.3                       0                        -0.6                     -8.918936762870822E-11+3.2153153194110433E-10i
0.75                      0                        -0.15                    -1.6852109021356428E-11+7.439998933015183E-11i
0.15                      0                        -0.75                    -1.213980950309575E-10+4.115276893886651E-10i
-0.45                     0                        -0.45                    -6.144795051262075E-11+2.355390368353175E-10i
-0.6                      0                        -0.3                     -3.7493124076882404E-11+1.5321753821885317E-10i
-0.3                      0                        -0.6                     -8.915047242841014E-11+3.2156457013305786E-10i
-0.75                     0                        -0.15                    -1.6670220703929806E-11+7.418864905274007E-11i
-0.15                     0                        -0.75                    -1.2154458154675287E-10+4.11706506419576E-10i
0                         0.45                     0.45                     6.17537233649363E-11-2.3583970950267124E-10i
0                         0.6                      0.3                      3.792252821395744E-11-1.5358177708111965E-10i
0                         0.3                      0.6                      8.926394825482264E-11-3.217920472918896E-10i
0                         0.75                     0.15                     1.7075335152059232E-11-7.448611431557734E-11i
0                         0.15                     0.75                     1.2175480857948771E-10-4.122249536935679E-10i
0                         -0.45                    0.45                     6.157786044375721E-11-2.356894872080918E-10i
0                         -0.6                     0.3                      3.786379916353969E-11-1.5357045619620328E-10i
0                         -0.3                     0.6                      8.945907138465634E-11-3.2211266942230403E-10i
0                         -0.75                    0.15                     1.7282112057150657E-11-7.484637711818467E-11i
0                         -0.15                    0.75                     1.2153731367809268E-10-4.1206246365258156E-10i
0                         0.45                     -0.45                    -6.134826860135915E-11+2.3536945174036093E-10i
0                         0.6                      -0.3                     -3.748423178747653E-11+1.5313739239690144E-10i
0                         0.3                      -0.6                     -8.907723313834997E-11+3.214618657737487E-10i
0                         0.75                     -0.15                    -1.6694832020692663E-11+7.423568010815105E-11i
0                         0.15                     -0.75                    -1.2154412957486594E-10+4.1158542739240575E-10i
0                         -0.45                    -0.45                    -6.151957775147264E-11+2.3560491847495574E-10i
0                         -0.6                     -0.3                     -3.7337737386037155E-11+1.5296689365248643E-10i
0                         -0.3                     -0.6                     -8.894287971199466E-11+3.213513719249056E-10i
0                         -0.75                    -0.15                    -1.672198651289626E-11+7.427660259860191E-11i
0                         -0.15                    -0.75                    -1.2150543252999928E-10+4.115977065141356E-10i
0.9                       0                        0                        3.241134356948632E-13-3.8041928922900266E-13i
-0.9                      0                        0                        3.306657645833594E-13-3.2618797436374896E-13i
0                         0.9                      0                        7.694481430968339E-14+1.0641444910503894E-13i
0                         -0.9                     0                        4.391757894953193E-13-5.213383380726232E-13i
0                         0                        0.9                      1.589290517140499E-10-5.064212325955221E-10i
0                         0                        -0.9                     -1.59255953524982E-10+5.058840034341031E-10i
0.6                       0.6                      0                        2.584429796585204E-13-3.2871667771336116E-13i
0.6                       0.45                     0.15                     2.105014270555124E-11-8.025084100364303E-11i
0.6                       0.45                     -0.15                    -2.0688872912323302E-11+7.980949989371678E-11i
0.45                      0.6                      0.15                     2.10242004276704E-11-8.019151439333473E-11i
0.45                      0.6                      -0.15                    -2.0754749113863E-11+7.993113444411083E-11i
0.75                      0.45                     0                        2.489817618830073E-13-3.4515567338728603E-13i
0.45                      0.75                     0                        1.0884054110041678E-13-8.753104887071543E-14i
0.45                      0.45                     0.3                      4.160375316911399E-11-1.589381823808354E-10i
0.45                      0.45                     -0.3                     -4.135338978925485E-11+1.5860942460407608E-10i
0.6                       0.3                      0.3                      3.97466633608574E-11-1.5656387532472032E-10i
0.75                      0.3                      0.15                     1.8859837665793616E-11-7.742633037760987E-11i